 Entering Gaussian System, Link 0=g16
 Input=itraj_1/ground.gjf
 Output=itraj_1/ground.log
 Initial command:
 /root/wbh/soft/g16/l1.exe "/root/wbh/soft/g16/scratch/Gau-21974.inp" -scrdir="/root/wbh/soft/g16/scratch/"
 Entering Link 1 = /root/wbh/soft/g16/l1.exe PID=     21975.
  
 Copyright (c) 1988-2017, Gaussian, Inc.  All Rights Reserved.
  
 This is part of the Gaussian(R) 16 program.  It is based on
 the Gaussian(R) 09 system (copyright 2009, Gaussian, Inc.),
 the Gaussian(R) 03 system (copyright 2003, Gaussian, Inc.),
 the Gaussian(R) 98 system (copyright 1998, Gaussian, Inc.),
 the Gaussian(R) 94 system (copyright 1995, Gaussian, Inc.),
 the Gaussian 92(TM) system (copyright 1992, Gaussian, Inc.),
 the Gaussian 90(TM) system (copyright 1990, Gaussian, Inc.),
 the Gaussian 88(TM) system (copyright 1988, Gaussian, Inc.),
 the Gaussian 86(TM) system (copyright 1986, Carnegie Mellon
 University), and the Gaussian 82(TM) system (copyright 1983,
 Carnegie Mellon University). Gaussian is a federally registered
 trademark of Gaussian, Inc.
  
 This software contains proprietary and confidential information,
 including trade secrets, belonging to Gaussian, Inc.
  
 This software is provided under written license and may be
 used, copied, transmitted, or stored only in accord with that
 written license.
  
 The following legend is applicable only to US Government
 contracts under FAR:
  
                    RESTRICTED RIGHTS LEGEND
  
 Use, reproduction and disclosure by the US Government is
 subject to restrictions as set forth in subparagraphs (a)
 and (c) of the Commercial Computer Software - Restricted
 Rights clause in FAR 52.227-19.
  
 Gaussian, Inc.
 340 Quinnipiac St., Bldg. 40, Wallingford CT 06492
  
  
 ---------------------------------------------------------------
 Warning -- This program may not be used in any manner that
 competes with the business of Gaussian, Inc. or will provide
 assistance to any competitor of Gaussian, Inc.  The licensee
 of this program is prohibited from giving any competitor of
 Gaussian, Inc. access to this program.  By using this program,
 the user acknowledges that Gaussian, Inc. is engaged in the
 business of creating and licensing software in the field of
 computational chemistry and represents and warrants to the
 licensee that it is not a competitor of Gaussian, Inc. and that
 it will not use this program in any manner prohibited above.
 ---------------------------------------------------------------
  

 Cite this work as:
 Gaussian 16, Revision B.01,
 M. J. Frisch, G. W. Trucks, H. B. Schlegel, G. E. Scuseria, 
 M. A. Robb, J. R. Cheeseman, G. Scalmani, V. Barone, 
 G. A. Petersson, H. Nakatsuji, X. Li, M. Caricato, A. V. Marenich, 
 J. Bloino, B. G. Janesko, R. Gomperts, B. Mennucci, H. P. Hratchian, 
 J. V. Ortiz, A. F. Izmaylov, J. L. Sonnenberg, D. Williams-Young, 
 F. Ding, F. Lipparini, F. Egidi, J. Goings, B. Peng, A. Petrone, 
 T. Henderson, D. Ranasinghe, V. G. Zakrzewski, J. Gao, N. Rega, 
 G. Zheng, W. Liang, M. Hada, M. Ehara, K. Toyota, R. Fukuda, 
 J. Hasegawa, M. Ishida, T. Nakajima, Y. Honda, O. Kitao, H. Nakai, 
 T. Vreven, K. Throssell, J. A. Montgomery, Jr., J. E. Peralta, 
 F. Ogliaro, M. J. Bearpark, J. J. Heyd, E. N. Brothers, K. N. Kudin, 
 V. N. Staroverov, T. A. Keith, R. Kobayashi, J. Normand, 
 K. Raghavachari, A. P. Rendell, J. C. Burant, S. S. Iyengar, 
 J. Tomasi, M. Cossi, J. M. Millam, M. Klene, C. Adamo, R. Cammi, 
 J. W. Ochterski, R. L. Martin, K. Morokuma, O. Farkas, 
 J. B. Foresman, and D. J. Fox, Gaussian, Inc., Wallingford CT, 2016.
 
 ******************************************
 Gaussian 16:  EM64L-G16RevB.01 20-Dec-2017
                27-Aug-2020 
 ******************************************
  %mem=500MB
  %nproc=2
 Will use up to    2 processors via shared memory.
 --------------------------------
 #p b3lyp def2svp force units(au)
 --------------------------------
 1/10=7,20=1,30=1,38=1/1,3;
 2/12=2,17=6,18=5,40=1/2;
 3/5=43,7=101,11=2,25=1,30=1,71=1,74=-5/1,2,3;
 4//1;
 5/5=2,38=5/2;
 6/7=2,8=2,9=2,10=2,28=1/1;
 7/29=1/1,2,3,16;
 1/10=7,30=1/3;
 99//99;
 Leave Link    1 at Thu Aug 27 11:17:06 2020, MaxMem=    65536000 cpu:               0.0 elap:               0.0
 (Enter /root/wbh/soft/g16/l101.exe)
 --------------------------------------------------------------
 generate for AIMD to electronic calculate potential and force.
 --------------------------------------------------------------
 Symbolic Z-matrix:
 Charge =  0 Multiplicity = 1
 O                     1.88188  -0.21509   0.43631 
 H                     1.96787   1.32926  -0.47533 
 H                     2.40972  -1.59878  -0.35335 
 
 ITRead=  0  0  0
 MicOpt= -1 -1 -1
 NAtoms=      3 NQM=        3 NQMF=       0 NMMI=      0 NMMIF=      0
                NMic=       0 NMicF=      0.
                    Isotopes and Nuclear Properties:
 (Nuclear quadrupole moments (NQMom) in fm**2, nuclear magnetic moments (NMagM)
  in nuclear magnetons)

  Atom         1           2           3
 IAtWgt=          16           1           1
 AtmWgt=  15.9949146   1.0078250   1.0078250
 NucSpn=           0           1           1
 AtZEff=   0.0000000   0.0000000   0.0000000
 NQMom=    0.0000000   0.0000000   0.0000000
 NMagM=    0.0000000   2.7928460   2.7928460
 AtZNuc=   8.0000000   1.0000000   1.0000000
 Leave Link  101 at Thu Aug 27 11:17:06 2020, MaxMem=    65536000 cpu:               0.1 elap:               0.0
 (Enter /root/wbh/soft/g16/l103.exe)

 GradGradGradGradGradGradGradGradGradGradGradGradGradGradGradGradGradGrad
 Berny optimization.
 Initialization pass.
 Trust Radius=3.00D-01 FncErr=1.00D-07 GrdErr=1.00D-07 EigMax=2.50D+02 EigMin=1.00D-04
 Number of steps in this run=      2 maximum allowed number of steps=      2.
 GradGradGradGradGradGradGradGradGradGradGradGradGradGradGradGradGradGrad

 Leave Link  103 at Thu Aug 27 11:17:06 2020, MaxMem=    65536000 cpu:               0.0 elap:               0.0
 (Enter /root/wbh/soft/g16/l202.exe)
                          Input orientation:                          
 ---------------------------------------------------------------------
 Center     Atomic      Atomic             Coordinates (Angstroms)
 Number     Number       Type             X           Y           Z
 ---------------------------------------------------------------------
      1          8           0        0.995848   -0.113819    0.230884
      2          1           0        1.041353    0.703413   -0.251536
      3          1           0        1.275170   -0.846035   -0.186986
 ---------------------------------------------------------------------
                    Distance matrix (angstroms):
                    1          2          3
     1  O    0.000000
     2  H    0.950089   0.000000
     3  H    0.888131   1.568320   0.000000
 Stoichiometry    H2O
 Framework group  CS[SG(H2O)]
 Deg. of freedom     3
 Full point group                 CS      NOp   2
 Largest Abelian subgroup         CS      NOp   2
 Largest concise Abelian subgroup C1      NOp   1
                         Standard orientation:                         
 ---------------------------------------------------------------------
 Center     Atomic      Atomic             Coordinates (Angstroms)
 Number     Number       Type             X           Y           Z
 ---------------------------------------------------------------------
      1          8           0        0.000000    0.096087    0.000000
      2          1           0        0.781917   -0.443612    0.000000
      3          1           0       -0.781917   -0.325080    0.000000
 ---------------------------------------------------------------------
 Rotational constants (GHZ):        1233.6838590         406.5921325         305.8059459
 Leave Link  202 at Thu Aug 27 11:17:06 2020, MaxMem=    65536000 cpu:               0.0 elap:               0.0
 (Enter /root/wbh/soft/g16/l301.exe)
 Standard basis: def2SVP (5D, 7F)
 Ernie: Thresh=  0.10000D-02 Tol=  0.10000D-05 Strict=F.
 There are    19 symmetry adapted cartesian basis functions of A'  symmetry.
 There are     6 symmetry adapted cartesian basis functions of A"  symmetry.
 There are    18 symmetry adapted basis functions of A'  symmetry.
 There are     6 symmetry adapted basis functions of A"  symmetry.
    24 basis functions,    39 primitive gaussians,    25 cartesian basis functions
     5 alpha electrons        5 beta electrons
       nuclear repulsion energy         9.5598883084 Hartrees.
 IExCor=  402 DFT=T Ex+Corr=B3LYP ExCW=0 ScaHFX=  0.200000
 ScaDFX=  0.800000  0.720000  1.000000  0.810000 ScalE2=  1.000000  1.000000
 IRadAn=      5 IRanWt=     -1 IRanGd=            0 ICorTp=0 IEmpDi=  4
 NAtoms=    3 NActive=    3 NUniq=    3 SFac= 1.00D+00 NAtFMM=   60 NAOKFM=F Big=F
 Integral buffers will be    131072 words long.
 Raffenetti 2 integral format.
 Two-electron integral symmetry is turned on.
 Leave Link  301 at Thu Aug 27 11:17:06 2020, MaxMem=    65536000 cpu:               0.0 elap:               0.0
 (Enter /root/wbh/soft/g16/l302.exe)
 NPDir=0 NMtPBC=     1 NCelOv=     1 NCel=       1 NClECP=     1 NCelD=      1
         NCelK=      1 NCelE2=     1 NClLst=     1 CellRange=     0.0.
 One-electron integrals computed using PRISM.
 One-electron integral symmetry used in STVInt
   2 Symmetry operations used in ECPInt.
 ECPInt:  NShTT=      78 NPrTT=     272 LenC2=      79 LenP2D=     271.
 LDataN:  DoStor=T MaxTD1= 4 Len=   56
 NBasis=    24 RedAO= T EigKep=  3.71D-02  NBF=    18     6
 NBsUse=    24 1.00D-06 EigRej= -1.00D+00 NBFU=    18     6
 Precomputing XC quadrature grid using
 IXCGrd= 4 IRadAn=           5 IRanWt=          -1 IRanGd=           0 AccXCQ= 0.00D+00.
 Generated NRdTot=       0 NPtTot=           0 NUsed=           0 NTot=          32
 NSgBfM=    25    25    25    25    25 MxSgAt=     3 MxSgA2=     3.
 Leave Link  302 at Thu Aug 27 11:17:06 2020, MaxMem=    65536000 cpu:               0.1 elap:               0.1
 (Enter /root/wbh/soft/g16/l303.exe)
 DipDrv:  MaxL=1.
 Leave Link  303 at Thu Aug 27 11:17:06 2020, MaxMem=    65536000 cpu:               0.0 elap:               0.0
 (Enter /root/wbh/soft/g16/l401.exe)
 ExpMin= 1.22D-01 ExpMax= 2.27D+03 ExpMxC= 3.41D+02 IAcc=3 IRadAn=         5 AccDes= 0.00D+00
 Harris functional with IExCor=  402 and IRadAn=       5 diagonalized for initial guess.
 HarFok:  IExCor=  402 AccDes= 0.00D+00 IRadAn=         5 IDoV= 1 UseB2=F ITyADJ=14
 ICtDFT=  3500011 ScaDFX=  1.000000  1.000000  1.000000  1.000000
 FoFCou: FMM=F IPFlag=           0 FMFlag=      100000 FMFlg1=           0
         NFxFlg=           0 DoJE=T BraDBF=F KetDBF=T FulRan=T
         wScrn=  0.000000 ICntrl=       500 IOpCl=  0 I1Cent=   200000004 NGrid=           0
         NMat0=    1 NMatS0=      1 NMatT0=    0 NMatD0=    1 NMtDS0=    0 NMtDT0=    0
 Petite list used in FoFCou.
 Harris En= -76.3929330859697    
 JPrj=0 DoOrth=F DoCkMO=F.
 Initial guess orbital symmetries:
       Occupied  (A') (A') (A') (A') (A")
       Virtual   (A') (A') (A') (A') (A') (A") (A') (A') (A") (A')
                 (A") (A') (A') (A') (A") (A") (A') (A') (A')
 The electronic state of the initial guess is 1-A'.
 Leave Link  401 at Thu Aug 27 11:17:06 2020, MaxMem=    65536000 cpu:               0.2 elap:               0.1
 (Enter /root/wbh/soft/g16/l502.exe)
 Keep R1 ints in memory in symmetry-blocked form, NReq=1773122.
 FoFCou: FMM=F IPFlag=           0 FMFlag=           0 FMFlg1=           0
         NFxFlg=           0 DoJE=F BraDBF=F KetDBF=F FulRan=T
         wScrn=  0.000000 ICntrl=       600 IOpCl=  0 I1Cent=           0 NGrid=           0
         NMat0=    1 NMatS0=    300 NMatT0=    0 NMatD0=    1 NMtDS0=    0 NMtDT0=    0
 Petite list used in FoFCou.
 Closed shell SCF:
 Using DIIS extrapolation, IDIIS=  1040.
 NGot=    65536000 LenX=    65508776 LenY=    65507710
 Requested convergence on RMS density matrix=1.00D-08 within 128 cycles.
 Requested convergence on MAX density matrix=1.00D-06.
 Requested convergence on             energy=1.00D-06.
 No special actions if energy rises.
 Integral accuracy reduced to 1.0D-05 until final iterations.

 Cycle   1  Pass 0  IDiag  1:
 E= -76.2641124925529    
 DIIS: error= 5.70D-02 at cycle   1 NSaved=   1.
 NSaved= 1 IEnMin= 1 EnMin= -76.2641124925529     IErMin= 1 ErrMin= 5.70D-02
 ErrMax= 5.70D-02  0.00D+00 EMaxC= 1.00D-01 BMatC= 1.16D-01 BMatP= 1.16D-01
 IDIUse=3 WtCom= 4.30D-01 WtEn= 5.70D-01
 Coeff-Com:  0.100D+01
 Coeff-En:   0.100D+01
 Coeff:      0.100D+01
 Gap=     0.196 Goal=   None    Shift=    0.000
 GapD=    0.196 DampG=1.000 DampE=0.500 DampFc=0.5000 IDamp=-1.
 Damping current iteration by 5.00D-01
 RMSDP=2.03D-02 MaxDP=1.72D-01              OVMax= 1.90D-01

 Cycle   2  Pass 0  IDiag  1:
 E= -76.2961822882315     Delta-E=       -0.032069795679 Rises=F Damp=T
 DIIS: error= 1.18D-02 at cycle   2 NSaved=   2.
 NSaved= 2 IEnMin= 2 EnMin= -76.2961822882315     IErMin= 2 ErrMin= 1.18D-02
 ErrMax= 1.18D-02  0.00D+00 EMaxC= 1.00D-01 BMatC= 4.16D-03 BMatP= 1.16D-01
 IDIUse=3 WtCom= 8.82D-01 WtEn= 1.18D-01
 Coeff-Com:  0.146D+00 0.854D+00
 Coeff-En:   0.252D+00 0.748D+00
 Coeff:      0.159D+00 0.841D+00
 Gap=     0.337 Goal=   None    Shift=    0.000
 RMSDP=2.15D-03 MaxDP=2.40D-02 DE=-3.21D-02 OVMax= 1.04D-01

 Cycle   3  Pass 0  IDiag  1:
 E= -76.3479303079735     Delta-E=       -0.051748019742 Rises=F Damp=F
 DIIS: error= 1.46D-03 at cycle   3 NSaved=   3.
 NSaved= 3 IEnMin= 3 EnMin= -76.3479303079735     IErMin= 3 ErrMin= 1.46D-03
 ErrMax= 1.46D-03  0.00D+00 EMaxC= 1.00D-01 BMatC= 5.13D-05 BMatP= 4.16D-03
 IDIUse=3 WtCom= 9.85D-01 WtEn= 1.46D-02
 Coeff-Com:  0.232D-01 0.509D-01 0.926D+00
 Coeff-En:   0.000D+00 0.000D+00 0.100D+01
 Coeff:      0.229D-01 0.502D-01 0.927D+00
 Gap=     0.348 Goal=   None    Shift=    0.000
 RMSDP=1.87D-04 MaxDP=1.30D-03 DE=-5.17D-02 OVMax= 1.54D-03

 Cycle   4  Pass 0  IDiag  1:
 E= -76.3479625529326     Delta-E=       -0.000032244959 Rises=F Damp=F
 DIIS: error= 2.51D-04 at cycle   4 NSaved=   4.
 NSaved= 4 IEnMin= 4 EnMin= -76.3479625529326     IErMin= 4 ErrMin= 2.51D-04
 ErrMax= 2.51D-04  0.00D+00 EMaxC= 1.00D-01 BMatC= 1.82D-06 BMatP= 5.13D-05
 IDIUse=3 WtCom= 9.97D-01 WtEn= 2.51D-03
 Coeff-Com:  0.212D-02-0.116D-01 0.184D+00 0.825D+00
 Coeff-En:   0.000D+00 0.000D+00 0.000D+00 0.100D+01
 Coeff:      0.212D-02-0.116D-01 0.184D+00 0.826D+00
 Gap=     0.348 Goal=   None    Shift=    0.000
 RMSDP=2.55D-05 MaxDP=1.84D-04 DE=-3.22D-05 OVMax= 2.33D-04

 Cycle   5  Pass 0  IDiag  1:
 E= -76.3479636543664     Delta-E=       -0.000001101434 Rises=F Damp=F
 DIIS: error= 2.54D-05 at cycle   5 NSaved=   5.
 NSaved= 5 IEnMin= 5 EnMin= -76.3479636543664     IErMin= 5 ErrMin= 2.54D-05
 ErrMax= 2.54D-05  0.00D+00 EMaxC= 1.00D-01 BMatC= 1.77D-08 BMatP= 1.82D-06
 IDIUse=1 WtCom= 1.00D+00 WtEn= 0.00D+00
 Coeff-Com:  0.350D-03-0.496D-03 0.360D-02 0.328D-02 0.993D+00
 Coeff:      0.350D-03-0.496D-03 0.360D-02 0.328D-02 0.993D+00
 Gap=     0.348 Goal=   None    Shift=    0.000
 RMSDP=3.49D-06 MaxDP=3.56D-05 DE=-1.10D-06 OVMax= 3.30D-05

 Initial convergence to 1.0D-05 achieved.  Increase integral accuracy.
 Cycle   6  Pass 1  IDiag  1:
 E= -76.3479632506783     Delta-E=        0.000000403688 Rises=F Damp=F
 DIIS: error= 2.56D-06 at cycle   1 NSaved=   1.
 NSaved= 1 IEnMin= 1 EnMin= -76.3479632506783     IErMin= 1 ErrMin= 2.56D-06
 ErrMax= 2.56D-06  0.00D+00 EMaxC= 1.00D-01 BMatC= 1.34D-10 BMatP= 1.34D-10
 IDIUse=1 WtCom= 1.00D+00 WtEn= 0.00D+00
 Coeff-Com:  0.100D+01
 Coeff:      0.100D+01
 Gap=     0.348 Goal=   None    Shift=    0.000
 RMSDP=3.49D-06 MaxDP=3.56D-05 DE= 4.04D-07 OVMax= 5.32D-06

 Cycle   7  Pass 1  IDiag  1:
 E= -76.3479632507580     Delta-E=       -0.000000000080 Rises=F Damp=F
 DIIS: error= 1.21D-06 at cycle   2 NSaved=   2.
 NSaved= 2 IEnMin= 2 EnMin= -76.3479632507580     IErMin= 2 ErrMin= 1.21D-06
 ErrMax= 1.21D-06  0.00D+00 EMaxC= 1.00D-01 BMatC= 3.17D-11 BMatP= 1.34D-10
 IDIUse=1 WtCom= 1.00D+00 WtEn= 0.00D+00
 Coeff-Com:  0.326D+00 0.674D+00
 Coeff:      0.326D+00 0.674D+00
 Gap=     0.348 Goal=   None    Shift=    0.000
 RMSDP=1.82D-07 MaxDP=1.55D-06 DE=-7.98D-11 OVMax= 1.67D-06

 Cycle   8  Pass 1  IDiag  1:
 E= -76.3479632507816     Delta-E=       -0.000000000024 Rises=F Damp=F
 DIIS: error= 1.41D-07 at cycle   3 NSaved=   3.
 NSaved= 3 IEnMin= 3 EnMin= -76.3479632507816     IErMin= 3 ErrMin= 1.41D-07
 ErrMax= 1.41D-07  0.00D+00 EMaxC= 1.00D-01 BMatC= 5.83D-13 BMatP= 3.17D-11
 IDIUse=1 WtCom= 1.00D+00 WtEn= 0.00D+00
 Coeff-Com:  0.152D+00 0.323D+00 0.525D+00
 Coeff:      0.152D+00 0.323D+00 0.525D+00
 Gap=     0.348 Goal=   None    Shift=    0.000
 RMSDP=2.27D-08 MaxDP=2.09D-07 DE=-2.36D-11 OVMax= 2.03D-07

 Cycle   9  Pass 1  IDiag  1:
 E= -76.3479632507818     Delta-E=        0.000000000000 Rises=F Damp=F
 DIIS: error= 2.63D-08 at cycle   4 NSaved=   4.
 NSaved= 4 IEnMin= 4 EnMin= -76.3479632507818     IErMin= 4 ErrMin= 2.63D-08
 ErrMax= 2.63D-08  0.00D+00 EMaxC= 1.00D-01 BMatC= 2.59D-14 BMatP= 5.83D-13
 IDIUse=1 WtCom= 1.00D+00 WtEn= 0.00D+00
 Coeff-Com: -0.131D-01-0.246D-01 0.156D+00 0.882D+00
 Coeff:     -0.131D-01-0.246D-01 0.156D+00 0.882D+00
 Gap=     0.348 Goal=   None    Shift=    0.000
 RMSDP=4.38D-09 MaxDP=4.45D-08 DE=-1.42D-13 OVMax= 5.42D-08

 SCF Done:  E(RB3LYP) =  -76.3479632508     A.U. after    9 cycles
            NFock=  9  Conv=0.44D-08     -V/T= 2.0050
 KE= 7.596671671128D+01 PE=-1.997605945072D+02 EE= 3.788602623677D+01
 Leave Link  502 at Thu Aug 27 11:17:06 2020, MaxMem=    65536000 cpu:               0.6 elap:               0.3
 (Enter /root/wbh/soft/g16/l601.exe)
 Copying SCF densities to generalized density rwf, IOpCl= 0 IROHF=0.

 **********************************************************************

            Population analysis using the SCF Density.

 **********************************************************************

 Orbital symmetries:
       Occupied  (A') (A') (A') (A') (A")
       Virtual   (A') (A') (A') (A') (A') (A") (A') (A') (A") (A')
                 (A") (A') (A') (A') (A") (A") (A') (A') (A')
 The electronic state is 1-A'.
 Alpha  occ. eigenvalues --  -19.10539  -0.98971  -0.55322  -0.34474  -0.29131
 Alpha virt. eigenvalues --    0.05659   0.13535   0.59172   0.65887   0.90984
 Alpha virt. eigenvalues --    0.92271   1.00415   1.08125   1.32024   1.54717
 Alpha virt. eigenvalues --    1.62397   1.74910   2.28379   2.42384   2.91431
 Alpha virt. eigenvalues --    3.11382   3.12660   3.69096   3.78455
          Condensed to atoms (all electrons):
               1          2          3
     1  O    7.570895   0.348569   0.364858
     2  H    0.348569   0.529225  -0.034410
     3  H    0.364858  -0.034410   0.541845
 Mulliken charges:
               1
     1  O   -0.284322
     2  H    0.156616
     3  H    0.127706
 Sum of Mulliken charges =   0.00000
 Mulliken charges with hydrogens summed into heavy atoms:
               1
     1  O    0.000000
 Electronic spatial extent (au):  <R**2>=             18.3611
 Charge=              0.0000 electrons
 Dipole moment (field-independent basis, Debye):
    X=             -0.0387    Y=             -1.7756    Z=              0.0000  Tot=              1.7761
 Quadrupole moment (field-independent basis, Debye-Ang):
   XX=             -3.9139   YY=             -6.1940   ZZ=             -6.9074
   XY=             -0.1974   XZ=              0.0000   YZ=              0.0000
 Traceless Quadrupole moment (field-independent basis, Debye-Ang):
   XX=              1.7579   YY=             -0.5223   ZZ=             -1.2356
   XY=             -0.1974   XZ=              0.0000   YZ=              0.0000
 Octapole moment (field-independent basis, Debye-Ang**2):
  XXX=             -0.0824  YYY=             -0.9436  ZZZ=              0.0000  XYY=              0.0838
  XXY=             -1.0159  XXZ=              0.0000  XZZ=             -0.0427  YZZ=             -0.2747
  YYZ=              0.0000  XYZ=              0.0000
 Hexadecapole moment (field-independent basis, Debye-Ang**3):
 XXXX=             -5.4705 YYYY=             -5.5892 ZZZZ=             -4.7277 XXXY=              0.0061
 XXXZ=              0.0000 YYYX=              0.0482 YYYZ=              0.0000 ZZZX=              0.0000
 ZZZY=              0.0000 XXYY=             -1.7122 XXZZ=             -2.0046 YYZZ=             -1.7457
 XXYZ=              0.0000 YYXZ=              0.0000 ZZXY=              0.0498
 N-N= 9.559888308411D+00 E-N=-1.997605935837D+02  KE= 7.596671671128D+01
 Symmetry A'   KE= 7.135686016997D+01
 Symmetry A"   KE= 4.609856541309D+00
 No NMR shielding tensors so no spin-rotation constants.
 Leave Link  601 at Thu Aug 27 11:17:06 2020, MaxMem=    65536000 cpu:               0.1 elap:               0.1
 (Enter /root/wbh/soft/g16/l701.exe)
 ... and contract with generalized density number  0.
 Compute integral first derivatives.
   2 Symmetry operations used in ECPInt.
 ECPInt:  NShTT=      78 NPrTT=     272 LenC2=      79 LenP2D=     271.
 LDataN:  DoStor=T MaxTD1= 5 Len=  102
 Leave Link  701 at Thu Aug 27 11:17:06 2020, MaxMem=    65536000 cpu:               0.1 elap:               0.1
 (Enter /root/wbh/soft/g16/l702.exe)
 L702 exits ... SP integral derivatives will be done elsewhere.
 Leave Link  702 at Thu Aug 27 11:17:06 2020, MaxMem=    65536000 cpu:               0.0 elap:               0.0
 (Enter /root/wbh/soft/g16/l703.exe)
 Integral derivatives from FoFJK, PRISM(SPDF).
 Compute integral first derivatives, UseDBF=F ICtDFT=           0.
 Calling FoFJK, ICntrl=      2127 FMM=F ISym2X=1 I1Cent= 0 IOpClX= 0 NMat=1 NMatS=1 NMatT=0.
 FoFJK:  IHMeth= 1 ICntrl=    2127 DoSepK=F KAlg= 0 I1Cent=           0 FoldK=F
 IRaf=         0 NMat=       1 IRICut=       1 DoRegI=T DoRafI=F ISym2E= 1 IDoP0=0 IntGTp=1.
 FoFCou: FMM=F IPFlag=           0 FMFlag=      100000 FMFlg1=         800
         NFxFlg=           0 DoJE=F BraDBF=F KetDBF=F FulRan=T
         wScrn=  0.000000 ICntrl=      2127 IOpCl=  0 I1Cent=           0 NGrid=           0
         NMat0=    1 NMatS0=      1 NMatT0=    0 NMatD0=    1 NMtDS0=    0 NMtDT0=    0
 Petite list used in FoFCou.
 Leave Link  703 at Thu Aug 27 11:17:06 2020, MaxMem=    65536000 cpu:               0.3 elap:               0.1
 (Enter /root/wbh/soft/g16/l716.exe)
 Dipole        =-1.52339485D-02-6.98591262D-01-5.91452225D-17
 ***** Axes restored to original set *****
 -------------------------------------------------------------------
 Center     Atomic                   Forces (Hartrees/Bohr)
 Number     Number              X              Y              Z
 -------------------------------------------------------------------
      1        8          -0.040545308    0.070734636    0.076385206
      2        1           0.006451597   -0.000281743   -0.017009503
      3        1           0.034093711   -0.070452893   -0.059375703
 -------------------------------------------------------------------
 Cartesian Forces:  Max     0.076385206 RMS     0.049960542
 Z-matrix is all fixed cartesians, so copy forces.
 Force constants in Cartesian coordinates: 
                1             2             3             4             5 
      1  0.948182D+00
      2 -0.236026D-01  0.955969D+00
      3  0.148061D+00  0.821645D-01  0.570427D+00
      4 -0.127073D-01 -0.255618D-01  0.450572D-01  0.863448D+00
      5 -0.910063D-02 -0.424298D+00  0.211891D+00  0.157082D+00  0.462086D+00
      6  0.377743D-01  0.255609D+00 -0.213410D+00  0.293157D+00 -0.179189D+00
      7 -0.804304D-01  0.191606D+00  0.128835D+00  0.430341D-02 -0.553951D-02
      8  0.175145D+00 -0.507942D+00 -0.240422D+00  0.109217D-01 -0.140588D-01
      9  0.136118D+00 -0.284139D+00 -0.235791D+00 -0.162611D-01  0.209319D-01
                6             7             8             9 
      6  0.300711D+00
      7 -0.897816D-02  0.931171D+00
      8 -0.227858D-01 -0.436250D-01  0.545730D+00
      9  0.339253D-01  0.202097D+00  0.316841D+00  0.323092D+00
 Leave Link  716 at Thu Aug 27 11:17:06 2020, MaxMem=    65536000 cpu:               0.0 elap:               0.0
 (Enter /root/wbh/soft/g16/l103.exe)

 GradGradGradGradGradGradGradGradGradGradGradGradGradGradGradGradGradGrad
 Berny optimization.
 Search for a local minimum.
 Step number   1 out of a maximum of    2
 All quantities printed in internal units (Hartrees-Bohrs-Radians)
 Second derivative matrix not updated -- first step.
 The second derivative matrix:
                          X1        Y1        Z1        X2        Y2
           X1           0.94818
           Y1          -0.02360   0.95597
           Z1           0.14806   0.08216   0.57043
           X2          -0.01271  -0.02556   0.04506   0.86345
           Y2          -0.00910  -0.42430   0.21189   0.15708   0.46209
           Z2           0.03777   0.25561  -0.21341   0.29316  -0.17919
           X3          -0.08043   0.19161   0.12884   0.00430  -0.00554
           Y3           0.17514  -0.50794  -0.24042   0.01092  -0.01406
           Z3           0.13612  -0.28414  -0.23579  -0.01626   0.02093
                          Z2        X3        Y3        Z3
           Z2           0.30071
           X3          -0.00898   0.93117
           Y3          -0.02279  -0.04362   0.54573
           Z3           0.03393   0.20210   0.31684   0.32309
 ITU=  0
     Eigenvalues ---    0.17520   0.88800   1.32598
 Angle between quadratic step and forces=  45.84 degrees.
 ClnCor:  largest displacement from symmetrization is 7.21D-17 for atom     2.
 Linear search not attempted -- first point.
 ClnCor:  largest displacement from symmetrization is 1.78D-15 for atom     2.
 B after Tr=    -0.016875    0.016975    0.037307
         Rot=    0.999996    0.002668    0.000444    0.001005 Ang=   0.33 deg.
 Variable       Old X    -DE/DX   Delta X   Delta X   Delta X     New X
                                 (Linear)    (Quad)   (Total)
    X1        1.88188  -0.04055   0.00000  -0.02802  -0.04574   1.83614
    Y1       -0.21509   0.07073   0.00000   0.01943   0.03537  -0.17972
    Z1        0.43631   0.07639   0.00000   0.06582   0.10582   0.54213
    X2        1.96787   0.00645   0.00000   0.03469   0.02088   1.98875
    Y2        1.32926  -0.00028   0.00000  -0.04738  -0.03736   1.29189
    Z2       -0.47533  -0.01701   0.00000  -0.07118  -0.03891  -0.51425
    X3        2.40972   0.03409   0.00000   0.04456   0.02486   2.43458
    Y3       -1.59878  -0.07045   0.00000  -0.00758   0.00199  -1.59678
    Z3       -0.35335  -0.05938   0.00000  -0.11499  -0.06691  -0.42026
         Item               Value     Threshold  Converged?
 Maximum Force            0.076385     0.000450     NO 
 RMS     Force            0.049961     0.000300     NO 
 Maximum Displacement     0.105823     0.001800     NO 
 RMS     Displacement     0.050538     0.001200     NO 
 Predicted change in Energy=-8.933234D-03
 GradGradGradGradGradGradGradGradGradGradGradGradGradGradGradGradGradGrad

 Leave Link  103 at Thu Aug 27 11:17:06 2020, MaxMem=    65536000 cpu:               0.0 elap:               0.0
 (Enter /root/wbh/soft/g16/l9999.exe)
 1\1\GINC-LOCALHOST\Force\RB3LYP\def2SVP\H2O1\ROOT\27-Aug-2020\0\\#p b3
 lyp def2svp force units(au)\\generate for AIMD to electronic calculate
  potential and force.\\0,1\O,0.9958482743,-0.113819361,0.2308835785\H,
 1.0413533339,0.7034134644,-0.2515361903\H,1.2751702316,-0.8460354541,-
 0.1869862968\\Version=EM64L-G16RevB.01\State=1-A'\HF=-76.3479633\RMSD=
 4.381e-09\RMSF=4.996e-02\Dipole=0.2388316,0.0468193,-0.6550032\Quadrup
 ole=-0.8071509,1.2664109,-0.45926,-0.3211595,-0.1540171,-0.1137965\PG=
 CS [SG(H2O1)]\\@


 I HAVE NOT FAILED, I HAVE ONLY DISCOVERED 10,000
 WAYS THAT DIDN'T WORK.  -- THOMAS A. EDISON
 Job cpu time:       0 days  0 hours  0 minutes  1.8 seconds.
 Elapsed time:       0 days  0 hours  0 minutes  0.9 seconds.
 File lengths (MBytes):  RWF=      6 Int=      0 D2E=      0 Chk=      1 Scr=      1
 Normal termination of Gaussian 16 at Thu Aug 27 11:17:06 2020.
