 Entering Gaussian System, Link 0=g16
 Input=itraj_1/ground.gjf
 Output=itraj_1/ground.log
 Initial command:
 /home/public/wbh/soft/g16/l1.exe "/home/public/wbh/soft/g16/scratch/Gau-8854.inp" -scrdir="/home/public/wbh/soft/g16/scratch/"
 Default is to use a total of   2 processors:
                                2 via shared-memory
                                1 via Linda
 Entering Link 1 = /home/public/wbh/soft/g16/l1.exe PID=      8855.
  
 Copyright (c) 1988-2017, Gaussian, Inc.  All Rights Reserved.
  
 This is part of the Gaussian(R) 16 program.  It is based on
 the Gaussian(R) 09 system (copyright 2009, Gaussian, Inc.),
 the Gaussian(R) 03 system (copyright 2003, Gaussian, Inc.),
 the Gaussian(R) 98 system (copyright 1998, Gaussian, Inc.),
 the Gaussian(R) 94 system (copyright 1995, Gaussian, Inc.),
 the Gaussian 92(TM) system (copyright 1992, Gaussian, Inc.),
 the Gaussian 90(TM) system (copyright 1990, Gaussian, Inc.),
 the Gaussian 88(TM) system (copyright 1988, Gaussian, Inc.),
 the Gaussian 86(TM) system (copyright 1986, Carnegie Mellon
 University), and the Gaussian 82(TM) system (copyright 1983,
 Carnegie Mellon University). Gaussian is a federally registered
 trademark of Gaussian, Inc.
  
 This software contains proprietary and confidential information,
 including trade secrets, belonging to Gaussian, Inc.
  
 This software is provided under written license and may be
 used, copied, transmitted, or stored only in accord with that
 written license.
  
 The following legend is applicable only to US Government
 contracts under FAR:
  
                    RESTRICTED RIGHTS LEGEND
  
 Use, reproduction and disclosure by the US Government is
 subject to restrictions as set forth in subparagraphs (a)
 and (c) of the Commercial Computer Software - Restricted
 Rights clause in FAR 52.227-19.
  
 Gaussian, Inc.
 340 Quinnipiac St., Bldg. 40, Wallingford CT 06492
  
  
 ---------------------------------------------------------------
 Warning -- This program may not be used in any manner that
 competes with the business of Gaussian, Inc. or will provide
 assistance to any competitor of Gaussian, Inc.  The licensee
 of this program is prohibited from giving any competitor of
 Gaussian, Inc. access to this program.  By using this program,
 the user acknowledges that Gaussian, Inc. is engaged in the
 business of creating and licensing software in the field of
 computational chemistry and represents and warrants to the
 licensee that it is not a competitor of Gaussian, Inc. and that
 it will not use this program in any manner prohibited above.
 ---------------------------------------------------------------
  

 Cite this work as:
 Gaussian 16, Revision B.01,
 M. J. Frisch, G. W. Trucks, H. B. Schlegel, G. E. Scuseria, 
 M. A. Robb, J. R. Cheeseman, G. Scalmani, V. Barone, 
 G. A. Petersson, H. Nakatsuji, X. Li, M. Caricato, A. V. Marenich, 
 J. Bloino, B. G. Janesko, R. Gomperts, B. Mennucci, H. P. Hratchian, 
 J. V. Ortiz, A. F. Izmaylov, J. L. Sonnenberg, D. Williams-Young, 
 F. Ding, F. Lipparini, F. Egidi, J. Goings, B. Peng, A. Petrone, 
 T. Henderson, D. Ranasinghe, V. G. Zakrzewski, J. Gao, N. Rega, 
 G. Zheng, W. Liang, M. Hada, M. Ehara, K. Toyota, R. Fukuda, 
 J. Hasegawa, M. Ishida, T. Nakajima, Y. Honda, O. Kitao, H. Nakai, 
 T. Vreven, K. Throssell, J. A. Montgomery, Jr., J. E. Peralta, 
 F. Ogliaro, M. J. Bearpark, J. J. Heyd, E. N. Brothers, K. N. Kudin, 
 V. N. Staroverov, T. A. Keith, R. Kobayashi, J. Normand, 
 K. Raghavachari, A. P. Rendell, J. C. Burant, S. S. Iyengar, 
 J. Tomasi, M. Cossi, J. M. Millam, M. Klene, C. Adamo, R. Cammi, 
 J. W. Ochterski, R. L. Martin, K. Morokuma, O. Farkas, 
 J. B. Foresman, and D. J. Fox, Gaussian, Inc., Wallingford CT, 2016.
 
 ******************************************
 Gaussian 16:  EM64L-G16RevB.01 20-Dec-2017
                 8-Sep-2020 
 ******************************************
  %mem=500MB
  %nproc=2
 Will use up to    2 processors via shared memory.
 ---------------------------------------
 #p b3lyp def2svp force units(au) nosymm
 ---------------------------------------
 1/10=7,20=1,30=1,38=1/1,3;
 2/12=2,15=1,17=6,18=5,40=1/2;
 3/5=43,7=101,11=2,25=1,30=1,71=1,74=-5/1,2,3;
 4//1;
 5/5=2,38=5/2;
 6/7=2,8=2,9=2,10=2,28=1/1;
 7/29=1,30=1/1,2,3,16;
 1/10=7,30=1/3;
 99//99;
 Leave Link    1 at Tue Sep  8 19:55:46 2020, MaxMem=    65536000 cpu:               0.0 elap:               0.0
 (Enter /home/public/wbh/soft/g16/l101.exe)
 --------------------------------------------------------------
 generate for AIMD to electronic calculate potential and force.
 --------------------------------------------------------------
 Symbolic Z-matrix:
 Charge =  0 Multiplicity = 1
 O                     3.77059  -0.42252   0.70299 
 H                     3.83053   0.92064  -0.54356 
 H                     4.81625  -1.58119  -0.20979 
 
 ITRead=  0  0  0
 MicOpt= -1 -1 -1
 NAtoms=      3 NQM=        3 NQMF=       0 NMMI=      0 NMMIF=      0
                NMic=       0 NMicF=      0.
                    Isotopes and Nuclear Properties:
 (Nuclear quadrupole moments (NQMom) in fm**2, nuclear magnetic moments (NMagM)
  in nuclear magnetons)

  Atom         1           2           3
 IAtWgt=          16           1           1
 AtmWgt=  15.9949146   1.0078250   1.0078250
 NucSpn=           0           1           1
 AtZEff=   0.0000000   0.0000000   0.0000000
 NQMom=    0.0000000   0.0000000   0.0000000
 NMagM=    0.0000000   2.7928460   2.7928460
 AtZNuc=   8.0000000   1.0000000   1.0000000
 Leave Link  101 at Tue Sep  8 19:55:46 2020, MaxMem=    65536000 cpu:               0.1 elap:               0.0
 (Enter /home/public/wbh/soft/g16/l103.exe)

 GradGradGradGradGradGradGradGradGradGradGradGradGradGradGradGradGradGrad
 Berny optimization.
 Initialization pass.
 Trust Radius=3.00D-01 FncErr=1.00D-07 GrdErr=1.00D-07 EigMax=2.50D+02 EigMin=1.00D-04
 Number of steps in this run=      2 maximum allowed number of steps=      2.
 GradGradGradGradGradGradGradGradGradGradGradGradGradGradGradGradGradGrad

 Leave Link  103 at Tue Sep  8 19:55:46 2020, MaxMem=    65536000 cpu:               0.0 elap:               0.0
 (Enter /home/public/wbh/soft/g16/l202.exe)
                          Input orientation:                          
 ---------------------------------------------------------------------
 Center     Atomic      Atomic             Coordinates (Angstroms)
 Number     Number       Type             X           Y           Z
 ---------------------------------------------------------------------
      1          8           0        1.995311   -0.223588    0.372005
      2          1           0        2.027027    0.487182   -0.287640
      3          1           0        2.548650   -0.836730   -0.111014
 ---------------------------------------------------------------------
                    Distance matrix (angstroms):
                    1          2          3
     1  O    0.000000
     2  H    0.970223   0.000000
     3  H    0.956784   1.433887   0.000000
 Symmetry turned off by external request.
 Stoichiometry    H2O
 Framework group  CS[SG(H2O)]
 Deg. of freedom     3
 Full point group                 CS      NOp   2
 Rotational constants (GHZ):         681.7941642         487.5479259         284.2686785
 Leave Link  202 at Tue Sep  8 19:55:46 2020, MaxMem=    65536000 cpu:               0.0 elap:               0.0
 (Enter /home/public/wbh/soft/g16/l301.exe)
 Standard basis: def2SVP (5D, 7F)
 Ernie: Thresh=  0.10000D-02 Tol=  0.10000D-05 Strict=F.
    24 basis functions,    39 primitive gaussians,    25 cartesian basis functions
     5 alpha electrons        5 beta electrons
       nuclear repulsion energy         9.1570296182 Hartrees.
 IExCor=  402 DFT=T Ex+Corr=B3LYP ExCW=0 ScaHFX=  0.200000
 ScaDFX=  0.800000  0.720000  1.000000  0.810000 ScalE2=  1.000000  1.000000
 IRadAn=      5 IRanWt=     -1 IRanGd=            0 ICorTp=0 IEmpDi=  4
 NAtoms=    3 NActive=    3 NUniq=    3 SFac= 1.00D+00 NAtFMM=   60 NAOKFM=F Big=F
 Integral buffers will be    131072 words long.
 Raffenetti 2 integral format.
 Two-electron integral symmetry is turned off.
 Leave Link  301 at Tue Sep  8 19:55:46 2020, MaxMem=    65536000 cpu:               0.0 elap:               0.0
 (Enter /home/public/wbh/soft/g16/l302.exe)
 NPDir=0 NMtPBC=     1 NCelOv=     1 NCel=       1 NClECP=     1 NCelD=      1
         NCelK=      1 NCelE2=     1 NClLst=     1 CellRange=     0.0.
 One-electron integrals computed using PRISM.
   1 Symmetry operations used in ECPInt.
 ECPInt:  NShTT=      78 NPrTT=     272 LenC2=      79 LenP2D=     272.
 LDataN:  DoStor=T MaxTD1= 4 Len=   56
 NBasis=    24 RedAO= T EigKep=  3.65D-02  NBF=    24
 NBsUse=    24 1.00D-06 EigRej= -1.00D+00 NBFU=    24
 Precomputing XC quadrature grid using
 IXCGrd= 4 IRadAn=           5 IRanWt=          -1 IRanGd=           0 AccXCQ= 0.00D+00.
 Generated NRdTot=       0 NPtTot=           0 NUsed=           0 NTot=          32
 NSgBfM=    25    25    25    25    25 MxSgAt=     3 MxSgA2=     3.
 Leave Link  302 at Tue Sep  8 19:55:47 2020, MaxMem=    65536000 cpu:               0.2 elap:               0.1
 (Enter /home/public/wbh/soft/g16/l303.exe)
 DipDrv:  MaxL=1.
 Leave Link  303 at Tue Sep  8 19:55:47 2020, MaxMem=    65536000 cpu:               0.0 elap:               0.0
 (Enter /home/public/wbh/soft/g16/l401.exe)
 ExpMin= 1.22D-01 ExpMax= 2.27D+03 ExpMxC= 3.41D+02 IAcc=3 IRadAn=         5 AccDes= 0.00D+00
 Harris functional with IExCor=  402 and IRadAn=       5 diagonalized for initial guess.
 HarFok:  IExCor=  402 AccDes= 0.00D+00 IRadAn=         5 IDoV= 1 UseB2=F ITyADJ=14
 ICtDFT=  3500011 ScaDFX=  1.000000  1.000000  1.000000  1.000000
 FoFCou: FMM=F IPFlag=           0 FMFlag=      100000 FMFlg1=           0
         NFxFlg=           0 DoJE=T BraDBF=F KetDBF=T FulRan=T
         wScrn=  0.000000 ICntrl=       500 IOpCl=  0 I1Cent=   200000004 NGrid=           0
         NMat0=    1 NMatS0=      1 NMatT0=    0 NMatD0=    1 NMtDS0=    0 NMtDT0=    0
 Symmetry not used in FoFCou.
 Harris En= -76.3939935946118    
 JPrj=0 DoOrth=F DoCkMO=F.
 Leave Link  401 at Tue Sep  8 19:55:47 2020, MaxMem=    65536000 cpu:               0.4 elap:               0.2
 (Enter /home/public/wbh/soft/g16/l502.exe)
 Keep R1 ints in memory in canonical form, NReq=1772088.
 FoFCou: FMM=F IPFlag=           0 FMFlag=           0 FMFlg1=           0
         NFxFlg=           0 DoJE=F BraDBF=F KetDBF=F FulRan=T
         wScrn=  0.000000 ICntrl=       600 IOpCl=  0 I1Cent=           0 NGrid=           0
         NMat0=    1 NMatS0=    300 NMatT0=    0 NMatD0=    1 NMtDS0=    0 NMtDT0=    0
 Symmetry not used in FoFCou.
 Two-electron integral symmetry not used.
 Closed shell SCF:
 Using DIIS extrapolation, IDIIS=  1040.
 NGot=    65536000 LenX=    65489078 LenY=    65488012
 Requested convergence on RMS density matrix=1.00D-08 within 128 cycles.
 Requested convergence on MAX density matrix=1.00D-06.
 Requested convergence on             energy=1.00D-06.
 No special actions if energy rises.
 Integral accuracy reduced to 1.0D-05 until final iterations.

 Cycle   1  Pass 0  IDiag  1:
 E= -76.2805800023535    
 DIIS: error= 4.86D-02 at cycle   1 NSaved=   1.
 NSaved= 1 IEnMin= 1 EnMin= -76.2805800023535     IErMin= 1 ErrMin= 4.86D-02
 ErrMax= 4.86D-02  0.00D+00 EMaxC= 1.00D-01 BMatC= 1.02D-01 BMatP= 1.02D-01
 IDIUse=3 WtCom= 5.14D-01 WtEn= 4.86D-01
 Coeff-Com:  0.100D+01
 Coeff-En:   0.100D+01
 Coeff:      0.100D+01
 Gap=     0.191 Goal=   None    Shift=    0.000
 GapD=    0.191 DampG=1.000 DampE=0.500 DampFc=0.5000 IDamp=-1.
 Damping current iteration by 5.00D-01
 RMSDP=2.12D-02 MaxDP=1.77D-01              OVMax= 2.07D-01

 Cycle   2  Pass 0  IDiag  1:
 E= -76.3062681718419     Delta-E=       -0.025688169488 Rises=F Damp=T
 DIIS: error= 1.32D-02 at cycle   2 NSaved=   2.
 NSaved= 2 IEnMin= 2 EnMin= -76.3062681718419     IErMin= 2 ErrMin= 1.32D-02
 ErrMax= 1.32D-02  0.00D+00 EMaxC= 1.00D-01 BMatC= 5.87D-03 BMatP= 1.02D-01
 IDIUse=3 WtCom= 8.68D-01 WtEn= 1.32D-01
 Coeff-Com:  0.184D+00 0.816D+00
 Coeff-En:   0.306D+00 0.694D+00
 Coeff:      0.200D+00 0.800D+00
 Gap=     0.326 Goal=   None    Shift=    0.000
 RMSDP=2.55D-03 MaxDP=3.19D-02 DE=-2.57D-02 OVMax= 1.16D-01

 Cycle   3  Pass 0  IDiag  1:
 E= -76.3568550247058     Delta-E=       -0.050586852864 Rises=F Damp=F
 DIIS: error= 1.64D-03 at cycle   3 NSaved=   3.
 NSaved= 3 IEnMin= 3 EnMin= -76.3568550247058     IErMin= 3 ErrMin= 1.64D-03
 ErrMax= 1.64D-03  0.00D+00 EMaxC= 1.00D-01 BMatC= 8.52D-05 BMatP= 5.87D-03
 IDIUse=3 WtCom= 9.84D-01 WtEn= 1.64D-02
 Coeff-Com:  0.263D-01 0.107D-02 0.973D+00
 Coeff-En:   0.000D+00 0.000D+00 0.100D+01
 Coeff:      0.259D-01 0.105D-02 0.973D+00
 Gap=     0.337 Goal=   None    Shift=    0.000
 RMSDP=2.66D-04 MaxDP=2.54D-03 DE=-5.06D-02 OVMax= 2.04D-03

 Cycle   4  Pass 0  IDiag  1:
 E= -76.3569121782826     Delta-E=       -0.000057153577 Rises=F Damp=F
 DIIS: error= 2.37D-04 at cycle   4 NSaved=   4.
 NSaved= 4 IEnMin= 4 EnMin= -76.3569121782826     IErMin= 4 ErrMin= 2.37D-04
 ErrMax= 2.37D-04  0.00D+00 EMaxC= 1.00D-01 BMatC= 1.85D-06 BMatP= 8.52D-05
 IDIUse=3 WtCom= 9.98D-01 WtEn= 2.37D-03
 Coeff-Com:  0.401D-02-0.164D-01 0.233D+00 0.779D+00
 Coeff-En:   0.000D+00 0.000D+00 0.000D+00 0.100D+01
 Coeff:      0.400D-02-0.164D-01 0.232D+00 0.780D+00
 Gap=     0.337 Goal=   None    Shift=    0.000
 RMSDP=2.70D-05 MaxDP=1.81D-04 DE=-5.72D-05 OVMax= 2.37D-04

 Cycle   5  Pass 0  IDiag  1:
 E= -76.3569133545492     Delta-E=       -0.000001176267 Rises=F Damp=F
 DIIS: error= 3.57D-05 at cycle   5 NSaved=   5.
 NSaved= 5 IEnMin= 5 EnMin= -76.3569133545492     IErMin= 5 ErrMin= 3.57D-05
 ErrMax= 3.57D-05  0.00D+00 EMaxC= 1.00D-01 BMatC= 4.07D-08 BMatP= 1.85D-06
 IDIUse=1 WtCom= 1.00D+00 WtEn= 0.00D+00
 Coeff-Com:  0.522D-03-0.588D-03 0.125D-02-0.398D-02 0.100D+01
 Coeff:      0.522D-03-0.588D-03 0.125D-02-0.398D-02 0.100D+01
 Gap=     0.338 Goal=   None    Shift=    0.000
 RMSDP=4.99D-06 MaxDP=4.41D-05 DE=-1.18D-06 OVMax= 4.65D-05

 Initial convergence to 1.0D-05 achieved.  Increase integral accuracy.
 Cycle   6  Pass 1  IDiag  1:
 E= -76.3569131125306     Delta-E=        0.000000242019 Rises=F Damp=F
 DIIS: error= 7.19D-07 at cycle   1 NSaved=   1.
 NSaved= 1 IEnMin= 1 EnMin= -76.3569131125306     IErMin= 1 ErrMin= 7.19D-07
 ErrMax= 7.19D-07  0.00D+00 EMaxC= 1.00D-01 BMatC= 1.01D-11 BMatP= 1.01D-11
 IDIUse=1 WtCom= 1.00D+00 WtEn= 0.00D+00
 Coeff-Com:  0.100D+01
 Coeff:      0.100D+01
 Gap=     0.338 Goal=   None    Shift=    0.000
 RMSDP=4.99D-06 MaxDP=4.41D-05 DE= 2.42D-07 OVMax= 1.67D-06

 Cycle   7  Pass 1  IDiag  1:
 E= -76.3569131125361     Delta-E=       -0.000000000005 Rises=F Damp=F
 DIIS: error= 4.45D-07 at cycle   2 NSaved=   2.
 NSaved= 2 IEnMin= 2 EnMin= -76.3569131125361     IErMin= 2 ErrMin= 4.45D-07
 ErrMax= 4.45D-07  0.00D+00 EMaxC= 1.00D-01 BMatC= 6.99D-12 BMatP= 1.01D-11
 IDIUse=1 WtCom= 1.00D+00 WtEn= 0.00D+00
 Coeff-Com:  0.448D+00 0.552D+00
 Coeff:      0.448D+00 0.552D+00
 Gap=     0.338 Goal=   None    Shift=    0.000
 RMSDP=9.03D-08 MaxDP=7.07D-07 DE=-5.50D-12 OVMax= 8.47D-07

 Cycle   8  Pass 1  IDiag  1:
 E= -76.3569131125404     Delta-E=       -0.000000000004 Rises=F Damp=F
 DIIS: error= 1.41D-07 at cycle   3 NSaved=   3.
 NSaved= 3 IEnMin= 3 EnMin= -76.3569131125404     IErMin= 3 ErrMin= 1.41D-07
 ErrMax= 1.41D-07  0.00D+00 EMaxC= 1.00D-01 BMatC= 7.74D-13 BMatP= 6.99D-12
 IDIUse=1 WtCom= 1.00D+00 WtEn= 0.00D+00
 Coeff-Com:  0.584D-01 0.262D+00 0.680D+00
 Coeff:      0.584D-01 0.262D+00 0.680D+00
 Gap=     0.338 Goal=   None    Shift=    0.000
 RMSDP=2.32D-08 MaxDP=1.90D-07 DE=-4.32D-12 OVMax= 2.28D-07

 Cycle   9  Pass 1  IDiag  1:
 E= -76.3569131125409     Delta-E=        0.000000000000 Rises=F Damp=F
 DIIS: error= 1.63D-08 at cycle   4 NSaved=   4.
 NSaved= 4 IEnMin= 4 EnMin= -76.3569131125409     IErMin= 4 ErrMin= 1.63D-08
 ErrMax= 1.63D-08  0.00D+00 EMaxC= 1.00D-01 BMatC= 9.14D-15 BMatP= 7.74D-13
 IDIUse=1 WtCom= 1.00D+00 WtEn= 0.00D+00
 Coeff-Com: -0.146D-01 0.289D-01 0.151D+00 0.835D+00
 Coeff:     -0.146D-01 0.289D-01 0.151D+00 0.835D+00
 Gap=     0.338 Goal=   None    Shift=    0.000
 RMSDP=3.37D-09 MaxDP=2.73D-08 DE=-4.55D-13 OVMax= 3.71D-08

 SCF Done:  E(RB3LYP) =  -76.3569131125     A.U. after    9 cycles
            NFock=  9  Conv=0.34D-08     -V/T= 2.0065
 KE= 7.586437121390D+01 PE=-1.988901090370D+02 EE= 3.751179509240D+01
 Leave Link  502 at Tue Sep  8 19:55:47 2020, MaxMem=    65536000 cpu:               1.3 elap:               0.7
 (Enter /home/public/wbh/soft/g16/l601.exe)
 Copying SCF densities to generalized density rwf, IOpCl= 0 IROHF=0.

 **********************************************************************

            Population analysis using the SCF Density.

 **********************************************************************

 Alpha  occ. eigenvalues --  -19.12255  -0.98750  -0.50012  -0.38211  -0.29408
 Alpha virt. eigenvalues --    0.04347   0.12456   0.53897   0.64442   0.91878
 Alpha virt. eigenvalues --    0.92172   1.01070   1.11289   1.30237   1.37268
 Alpha virt. eigenvalues --    1.50265   1.83351   2.19974   2.26452   2.97149
 Alpha virt. eigenvalues --    2.99839   3.17941   3.46338   3.85749
          Condensed to atoms (all electrons):
               1          2          3
     1  O    7.639026   0.316013   0.319280
     2  H    0.316013   0.580217  -0.035579
     3  H    0.319280  -0.035579   0.581331
 Mulliken charges:
               1
     1  O   -0.274319
     2  H    0.139350
     3  H    0.134968
 Sum of Mulliken charges =   0.00000
 Mulliken charges with hydrogens summed into heavy atoms:
               1
     1  O    0.000000
 Electronic spatial extent (au):  <R**2>=            171.4633
 Charge=              0.0000 electrons
 Dipole moment (field-independent basis, Debye):
    X=              0.9533    Y=              0.1474    Z=             -1.8519  Tot=              2.0881
 Quadrupole moment (field-independent basis, Debye-Ang):
   XX=             -2.5108   YY=             -5.0467   ZZ=             -6.9505
   XY=             -0.6512   XZ=             -3.9475   YZ=              0.0912
 Traceless Quadrupole moment (field-independent basis, Debye-Ang):
   XX=              2.3252   YY=             -0.2107   ZZ=             -2.1146
   XY=             -0.6512   XZ=             -3.9475   YZ=              0.0912
 Octapole moment (field-independent basis, Debye-Ang**2):
  XXX=            -26.9609  YYY=              3.4059  ZZZ=             -6.0160  XYY=             -9.6101
  XXY=             -2.1268  XXZ=            -10.4283  XZZ=            -14.2272  YZZ=              1.5062
  YYZ=             -2.0841  XYZ=              0.2033
 Hexadecapole moment (field-independent basis, Debye-Ang**3):
 XXXX=           -130.3236 YYYY=             -7.7644 ZZZZ=             -9.5970 XXXY=             -3.4766
 XXXZ=            -29.9961 YYYX=              6.7570 YYYZ=              1.3901 ZZZX=            -12.0372
 ZZZY=              1.3911 XXYY=            -20.2858 XXZZ=            -31.6282 YYZZ=             -2.8638
 XXYZ=              1.0387 YYXZ=             -4.2293 ZZXY=              3.1511
 N-N= 9.157029618192D+00 E-N=-1.988901088803D+02  KE= 7.586437121390D+01
 No NMR shielding tensors so no spin-rotation constants.
 Leave Link  601 at Tue Sep  8 19:55:48 2020, MaxMem=    65536000 cpu:               0.1 elap:               0.1
 (Enter /home/public/wbh/soft/g16/l701.exe)
 ... and contract with generalized density number  0.
 Compute integral first derivatives.
   1 Symmetry operations used in ECPInt.
 ECPInt:  NShTT=      78 NPrTT=     272 LenC2=      79 LenP2D=     272.
 LDataN:  DoStor=T MaxTD1= 5 Len=  102
 Leave Link  701 at Tue Sep  8 19:55:48 2020, MaxMem=    65536000 cpu:               0.2 elap:               0.1
 (Enter /home/public/wbh/soft/g16/l702.exe)
 L702 exits ... SP integral derivatives will be done elsewhere.
 Leave Link  702 at Tue Sep  8 19:55:48 2020, MaxMem=    65536000 cpu:               0.0 elap:               0.0
 (Enter /home/public/wbh/soft/g16/l703.exe)
 Integral derivatives from FoFJK, PRISM(SPDF).
 Compute integral first derivatives, UseDBF=F ICtDFT=           0.
 Calling FoFJK, ICntrl=      2127 FMM=F ISym2X=0 I1Cent= 0 IOpClX= 0 NMat=1 NMatS=1 NMatT=0.
 FoFJK:  IHMeth= 1 ICntrl=    2127 DoSepK=F KAlg= 0 I1Cent=           0 FoldK=F
 IRaf=         0 NMat=       1 IRICut=       1 DoRegI=T DoRafI=F ISym2E= 0 IDoP0=0 IntGTp=1.
 FoFCou: FMM=F IPFlag=           0 FMFlag=      100000 FMFlg1=         800
         NFxFlg=           0 DoJE=F BraDBF=F KetDBF=F FulRan=T
         wScrn=  0.000000 ICntrl=      2127 IOpCl=  0 I1Cent=           0 NGrid=           0
         NMat0=    1 NMatS0=      1 NMatT0=    0 NMatD0=    1 NMtDS0=    0 NMtDT0=    0
 Symmetry not used in FoFCou.
 Leave Link  703 at Tue Sep  8 19:55:48 2020, MaxMem=    65536000 cpu:               0.6 elap:               0.3
 (Enter /home/public/wbh/soft/g16/l716.exe)
 Dipole        = 3.75042678D-01 5.80036774D-02-7.28610911D-01
 -------------------------------------------------------------------
 Center     Atomic                   Forces (Hartrees/Bohr)
 Number     Number              X              Y              Z
 -------------------------------------------------------------------
      1        8          -0.000352652    0.010083003   -0.007904030
      2        1          -0.006843440    0.007087765    0.006393735
      3        1           0.007196092   -0.017170768    0.001510295
 -------------------------------------------------------------------
 Cartesian Forces:  Max     0.017170768 RMS     0.008505645
 Z-matrix is all fixed cartesians, so copy forces.
 Force constants in Cartesian coordinates: 
                1             2             3             4             5 
      1  0.210574D+00
      2 -0.191786D+00  0.517490D+00
      3 -0.219013D+00 -0.909707D-01  0.473861D+00
      4 -0.195633D-01 -0.158793D-01  0.488964D-01  0.168711D-01
      5  0.558080D-02 -0.283216D+00  0.229838D+00 -0.297947D-02  0.301439D+00
      6  0.307148D-01  0.268718D+00 -0.283312D+00 -0.280413D-01 -0.249990D+00
      7 -0.191011D+00  0.207666D+00  0.170116D+00  0.269217D-02 -0.260133D-02
      8  0.186206D+00 -0.234273D+00 -0.138868D+00  0.188588D-01 -0.182225D-01
      9  0.188298D+00 -0.177747D+00 -0.190549D+00 -0.208551D-01  0.201515D-01
                6             7             8             9 
      6  0.262601D+00
      7 -0.267350D-02  0.188319D+00
      8 -0.187280D-01 -0.205064D+00  0.252496D+00
      9  0.207105D-01 -0.167443D+00  0.157596D+00  0.169838D+00
 Leave Link  716 at Tue Sep  8 19:55:48 2020, MaxMem=    65536000 cpu:               0.0 elap:               0.0
 (Enter /home/public/wbh/soft/g16/l103.exe)

 GradGradGradGradGradGradGradGradGradGradGradGradGradGradGradGradGradGrad
 Berny optimization.
 Search for a local minimum.
 Step number   1 out of a maximum of    2
 All quantities printed in internal units (Hartrees-Bohrs-Radians)
 Second derivative matrix not updated -- first step.
 The second derivative matrix:
                          X1        Y1        Z1        X2        Y2
           X1           0.21057
           Y1          -0.19179   0.51749
           Z1          -0.21901  -0.09097   0.47386
           X2          -0.01956  -0.01588   0.04890   0.01687
           Y2           0.00558  -0.28322   0.22984  -0.00298   0.30144
           Z2           0.03071   0.26872  -0.28331  -0.02804  -0.24999
           X3          -0.19101   0.20767   0.17012   0.00269  -0.00260
           Y3           0.18621  -0.23427  -0.13887   0.01886  -0.01822
           Z3           0.18830  -0.17775  -0.19055  -0.02086   0.02015
                          Z2        X3        Y3        Z3
           Z2           0.26260
           X3          -0.00267   0.18832
           Y3          -0.01873  -0.20506   0.25250
           Z3           0.02071  -0.16744   0.15760   0.16984
 ITU=  0
     Eigenvalues ---    0.13626   0.89115   0.94438
 Angle between quadratic step and forces=  32.14 degrees.
 Linear search not attempted -- first point.
 B after Tr=     0.008621    0.006750   -0.021338
         Rot=    1.000000    0.000570    0.000267    0.000315 Ang=   0.08 deg.
 Variable       Old X    -DE/DX   Delta X   Delta X   Delta X     New X
                                 (Linear)    (Quad)   (Total)
    X1        3.77059  -0.00035   0.00000   0.01376   0.02176   3.79235
    Y1       -0.42252   0.01008   0.00000   0.00682   0.01195  -0.41057
    Z1        0.70299  -0.00790   0.00000  -0.03071  -0.04956   0.65343
    X2        3.83053  -0.00684   0.00000  -0.05549  -0.04597   3.78455
    Y2        0.92064   0.00709   0.00000   0.07462   0.07842   0.99906
    Z2       -0.54356   0.00639   0.00000   0.03731   0.01685  -0.52671
    X3        4.81625   0.00720   0.00000   0.01656   0.02421   4.84046
    Y3       -1.58119  -0.01717   0.00000  -0.09390  -0.09037  -1.67156
    Z3       -0.20979   0.00151   0.00000   0.04956   0.03271  -0.17708
         Item               Value     Threshold  Converged?
 Maximum Force            0.017171     0.000450     NO 
 RMS     Force            0.008506     0.000300     NO 
 Maximum Displacement     0.090374     0.001800     NO 
 RMS     Displacement     0.048811     0.001200     NO 
 Predicted change in Energy=-1.630084D-03
 GradGradGradGradGradGradGradGradGradGradGradGradGradGradGradGradGradGrad

 Leave Link  103 at Tue Sep  8 19:55:48 2020, MaxMem=    65536000 cpu:               0.0 elap:               0.0
 (Enter /home/public/wbh/soft/g16/l9999.exe)
 1\1\GINC-LOCALHOST\Force\RB3LYP\def2SVP\H2O1\PUBLIC\08-Sep-2020\0\\#p 
 b3lyp def2svp force units(au) nosymm\\generate for AIMD to electronic 
 calculate potential and force.\\0,1\O,1.995310776,-0.2235877012,0.3720
 051974\H,2.0270269592,0.4871824589,-0.2876403532\H,2.5486503771,-0.836
 7297671,-0.111013981\\Version=EM64L-G16RevB.01\HF=-76.3569131\RMSD=3.3
 65e-09\RMSF=8.506e-03\Dipole=0.3750427,0.0580037,-0.7286109\Quadrupole
 =1.7287502,-0.1566331,-1.5721171,-0.4841327,-2.9348974,0.0678128\PG=CS
  [SG(H2O1)]\\@


 GARLIC THEN HAVE POWER TO SAVE FROM DEATH
 BEAR WITH IT THOUGH IT MAKETH UNSAVORY BREATH,
 AND SCORN NOT GARLIC LIKE SOME THAT THINK
 IT ONLY MAKETH MEN WINK AND DRINK AND STINK.
   --  SIR JOHN HARRINGTON,
       "THE ENGLISHMAN'S DOCTOR", 1609
 Job cpu time:       0 days  0 hours  0 minutes  3.1 seconds.
 Elapsed time:       0 days  0 hours  0 minutes  1.6 seconds.
 File lengths (MBytes):  RWF=      6 Int=      0 D2E=      0 Chk=      1 Scr=      1
 Normal termination of Gaussian 16 at Tue Sep  8 19:55:48 2020.
