 Entering Gaussian System, Link 0=g16
 Input=ground.gjf
 Output=ground.log
 Initial command:
 /root/wbh/soft/g16/l1.exe "/root/wbh/soft/g16/scratch/Gau-99930.inp" -scrdir="/root/wbh/soft/g16/scratch/"
 Entering Link 1 = /root/wbh/soft/g16/l1.exe PID=     99931.
  
 Copyright (c) 1988-2017, Gaussian, Inc.  All Rights Reserved.
  
 This is part of the Gaussian(R) 16 program.  It is based on
 the Gaussian(R) 09 system (copyright 2009, Gaussian, Inc.),
 the Gaussian(R) 03 system (copyright 2003, Gaussian, Inc.),
 the Gaussian(R) 98 system (copyright 1998, Gaussian, Inc.),
 the Gaussian(R) 94 system (copyright 1995, Gaussian, Inc.),
 the Gaussian 92(TM) system (copyright 1992, Gaussian, Inc.),
 the Gaussian 90(TM) system (copyright 1990, Gaussian, Inc.),
 the Gaussian 88(TM) system (copyright 1988, Gaussian, Inc.),
 the Gaussian 86(TM) system (copyright 1986, Carnegie Mellon
 University), and the Gaussian 82(TM) system (copyright 1983,
 Carnegie Mellon University). Gaussian is a federally registered
 trademark of Gaussian, Inc.
  
 This software contains proprietary and confidential information,
 including trade secrets, belonging to Gaussian, Inc.
  
 This software is provided under written license and may be
 used, copied, transmitted, or stored only in accord with that
 written license.
  
 The following legend is applicable only to US Government
 contracts under FAR:
  
                    RESTRICTED RIGHTS LEGEND
  
 Use, reproduction and disclosure by the US Government is
 subject to restrictions as set forth in subparagraphs (a)
 and (c) of the Commercial Computer Software - Restricted
 Rights clause in FAR 52.227-19.
  
 Gaussian, Inc.
 340 Quinnipiac St., Bldg. 40, Wallingford CT 06492
  
  
 ---------------------------------------------------------------
 Warning -- This program may not be used in any manner that
 competes with the business of Gaussian, Inc. or will provide
 assistance to any competitor of Gaussian, Inc.  The licensee
 of this program is prohibited from giving any competitor of
 Gaussian, Inc. access to this program.  By using this program,
 the user acknowledges that Gaussian, Inc. is engaged in the
 business of creating and licensing software in the field of
 computational chemistry and represents and warrants to the
 licensee that it is not a competitor of Gaussian, Inc. and that
 it will not use this program in any manner prohibited above.
 ---------------------------------------------------------------
  

 Cite this work as:
 Gaussian 16, Revision B.01,
 M. J. Frisch, G. W. Trucks, H. B. Schlegel, G. E. Scuseria, 
 M. A. Robb, J. R. Cheeseman, G. Scalmani, V. Barone, 
 G. A. Petersson, H. Nakatsuji, X. Li, M. Caricato, A. V. Marenich, 
 J. Bloino, B. G. Janesko, R. Gomperts, B. Mennucci, H. P. Hratchian, 
 J. V. Ortiz, A. F. Izmaylov, J. L. Sonnenberg, D. Williams-Young, 
 F. Ding, F. Lipparini, F. Egidi, J. Goings, B. Peng, A. Petrone, 
 T. Henderson, D. Ranasinghe, V. G. Zakrzewski, J. Gao, N. Rega, 
 G. Zheng, W. Liang, M. Hada, M. Ehara, K. Toyota, R. Fukuda, 
 J. Hasegawa, M. Ishida, T. Nakajima, Y. Honda, O. Kitao, H. Nakai, 
 T. Vreven, K. Throssell, J. A. Montgomery, Jr., J. E. Peralta, 
 F. Ogliaro, M. J. Bearpark, J. J. Heyd, E. N. Brothers, K. N. Kudin, 
 V. N. Staroverov, T. A. Keith, R. Kobayashi, J. Normand, 
 K. Raghavachari, A. P. Rendell, J. C. Burant, S. S. Iyengar, 
 J. Tomasi, M. Cossi, J. M. Millam, M. Klene, C. Adamo, R. Cammi, 
 J. W. Ochterski, R. L. Martin, K. Morokuma, O. Farkas, 
 J. B. Foresman, and D. J. Fox, Gaussian, Inc., Wallingford CT, 2016.
 
 ******************************************
 Gaussian 16:  EM64L-G16RevB.01 20-Dec-2017
                23-Aug-2020 
 ******************************************
  %mem=500MB
  %nproc=2
 Will use up to    2 processors via shared memory.
 --------------------------------
 #p b3lyp def2svp force units(au)
 --------------------------------
 1/10=7,20=1,30=1,38=1/1,3;
 2/12=2,17=6,18=5,40=1/2;
 3/5=43,7=101,11=2,25=1,30=1,71=1,74=-5/1,2,3;
 4//1;
 5/5=2,38=5/2;
 6/7=2,8=2,9=2,10=2,28=1/1;
 7/29=1/1,2,3,16;
 1/10=7,30=1/3;
 99//99;
 Leave Link    1 at Sun Aug 23 15:02:45 2020, MaxMem=    65536000 cpu:               0.0 elap:               0.0
 (Enter /root/wbh/soft/g16/l101.exe)
 --------------------------------------------------------------
 generate for AIMD to electronic calculate potential and force.
 --------------------------------------------------------------
 Symbolic Z-matrix:
 Charge =  0 Multiplicity = 1
 O                     19.22624  -2.19881   2.41604 
 H                     17.74477  -0.83685   2.44747 
 H                     19.56384  -1.0974    4.07497 
 
 ITRead=  0  0  0
 MicOpt= -1 -1 -1
 NAtoms=      3 NQM=        3 NQMF=       0 NMMI=      0 NMMIF=      0
                NMic=       0 NMicF=      0.
                    Isotopes and Nuclear Properties:
 (Nuclear quadrupole moments (NQMom) in fm**2, nuclear magnetic moments (NMagM)
  in nuclear magnetons)

  Atom         1           2           3
 IAtWgt=          16           1           1
 AtmWgt=  15.9949146   1.0078250   1.0078250
 NucSpn=           0           1           1
 AtZEff=   0.0000000   0.0000000   0.0000000
 NQMom=    0.0000000   0.0000000   0.0000000
 NMagM=    0.0000000   2.7928460   2.7928460
 AtZNuc=   8.0000000   1.0000000   1.0000000
 Leave Link  101 at Sun Aug 23 15:02:46 2020, MaxMem=    65536000 cpu:               0.1 elap:               0.0
 (Enter /root/wbh/soft/g16/l103.exe)

 GradGradGradGradGradGradGradGradGradGradGradGradGradGradGradGradGradGrad
 Berny optimization.
 Initialization pass.
 Trust Radius=3.00D-01 FncErr=1.00D-07 GrdErr=1.00D-07 EigMax=2.50D+02 EigMin=1.00D-04
 Number of steps in this run=      2 maximum allowed number of steps=      2.
 GradGradGradGradGradGradGradGradGradGradGradGradGradGradGradGradGradGrad

 Leave Link  103 at Sun Aug 23 15:02:46 2020, MaxMem=    65536000 cpu:               0.0 elap:               0.0
 (Enter /root/wbh/soft/g16/l202.exe)
                          Input orientation:                          
 ---------------------------------------------------------------------
 Center     Atomic      Atomic             Coordinates (Angstroms)
 Number     Number       Type             X           Y           Z
 ---------------------------------------------------------------------
      1          8           0       10.174088   -1.163561    1.278515
      2          1           0        9.390128   -0.442844    1.295145
      3          1           0       10.352737   -0.580717    2.156379
 ---------------------------------------------------------------------
                    Distance matrix (angstroms):
                    1          2          3
     1  O    0.000000
     2  H    1.065036   0.000000
     3  H    1.068769   1.298981   0.000000
 Stoichiometry    H2O
 Framework group  CS[SG(H2O)]
 Deg. of freedom     3
 Full point group                 CS      NOp   2
 Largest Abelian subgroup         CS      NOp   2
 Largest concise Abelian subgroup C1      NOp   1
                         Standard orientation:                         
 ---------------------------------------------------------------------
 Center     Atomic      Atomic             Coordinates (Angstroms)
 Number     Number       Type             X           Y           Z
 ---------------------------------------------------------------------
      1          8           0        0.000000    0.169286    0.000000
      2          1           0        0.649486   -0.674792    0.000000
      3          1           0       -0.649486   -0.679498    0.000000
 ---------------------------------------------------------------------
 Rotational constants (GHZ):         594.3929960         394.0511032         236.9594962
 Leave Link  202 at Sun Aug 23 15:02:46 2020, MaxMem=    65536000 cpu:               0.0 elap:               0.0
 (Enter /root/wbh/soft/g16/l301.exe)
 Standard basis: def2SVP (5D, 7F)
 Ernie: Thresh=  0.10000D-02 Tol=  0.10000D-05 Strict=F.
 There are    19 symmetry adapted cartesian basis functions of A'  symmetry.
 There are     6 symmetry adapted cartesian basis functions of A"  symmetry.
 There are    18 symmetry adapted basis functions of A'  symmetry.
 There are     6 symmetry adapted basis functions of A"  symmetry.
    24 basis functions,    39 primitive gaussians,    25 cartesian basis functions
     5 alpha electrons        5 beta electrons
       nuclear repulsion energy         8.3433082314 Hartrees.
 IExCor=  402 DFT=T Ex+Corr=B3LYP ExCW=0 ScaHFX=  0.200000
 ScaDFX=  0.800000  0.720000  1.000000  0.810000 ScalE2=  1.000000  1.000000
 IRadAn=      5 IRanWt=     -1 IRanGd=            0 ICorTp=0 IEmpDi=  4
 NAtoms=    3 NActive=    3 NUniq=    3 SFac= 1.00D+00 NAtFMM=   60 NAOKFM=F Big=F
 Integral buffers will be    131072 words long.
 Raffenetti 2 integral format.
 Two-electron integral symmetry is turned on.
 Leave Link  301 at Sun Aug 23 15:02:46 2020, MaxMem=    65536000 cpu:               0.1 elap:               0.0
 (Enter /root/wbh/soft/g16/l302.exe)
 NPDir=0 NMtPBC=     1 NCelOv=     1 NCel=       1 NClECP=     1 NCelD=      1
         NCelK=      1 NCelE2=     1 NClLst=     1 CellRange=     0.0.
 One-electron integrals computed using PRISM.
 One-electron integral symmetry used in STVInt
   2 Symmetry operations used in ECPInt.
 ECPInt:  NShTT=      78 NPrTT=     272 LenC2=      79 LenP2D=     270.
 LDataN:  DoStor=T MaxTD1= 4 Len=   56
 NBasis=    24 RedAO= T EigKep=  4.34D-02  NBF=    18     6
 NBsUse=    24 1.00D-06 EigRej= -1.00D+00 NBFU=    18     6
 Precomputing XC quadrature grid using
 IXCGrd= 4 IRadAn=           5 IRanWt=          -1 IRanGd=           0 AccXCQ= 0.00D+00.
 Generated NRdTot=       0 NPtTot=           0 NUsed=           0 NTot=          32
 NSgBfM=    25    25    25    25    25 MxSgAt=     3 MxSgA2=     3.
 Leave Link  302 at Sun Aug 23 15:02:46 2020, MaxMem=    65536000 cpu:               0.1 elap:               0.1
 (Enter /root/wbh/soft/g16/l303.exe)
 DipDrv:  MaxL=1.
 Leave Link  303 at Sun Aug 23 15:02:46 2020, MaxMem=    65536000 cpu:               0.0 elap:               0.0
 (Enter /root/wbh/soft/g16/l401.exe)
 ExpMin= 1.22D-01 ExpMax= 2.27D+03 ExpMxC= 3.41D+02 IAcc=3 IRadAn=         5 AccDes= 0.00D+00
 Harris functional with IExCor=  402 and IRadAn=       5 diagonalized for initial guess.
 HarFok:  IExCor=  402 AccDes= 0.00D+00 IRadAn=         5 IDoV= 1 UseB2=F ITyADJ=14
 ICtDFT=  3500011 ScaDFX=  1.000000  1.000000  1.000000  1.000000
 FoFCou: FMM=F IPFlag=           0 FMFlag=      100000 FMFlg1=           0
         NFxFlg=           0 DoJE=T BraDBF=F KetDBF=T FulRan=T
         wScrn=  0.000000 ICntrl=       500 IOpCl=  0 I1Cent=   200000004 NGrid=           0
         NMat0=    1 NMatS0=      1 NMatT0=    0 NMatD0=    1 NMtDS0=    0 NMtDT0=    0
 Petite list used in FoFCou.
 Harris En= -76.3591274990748    
 JPrj=0 DoOrth=F DoCkMO=F.
 Initial guess orbital symmetries:
       Occupied  (A') (A') (A') (A') (A")
       Virtual   (A') (A') (A') (A') (A") (A') (A') (A') (A') (A")
                 (A") (A') (A') (A') (A") (A') (A") (A') (A')
 The electronic state of the initial guess is 1-A'.
 Leave Link  401 at Sun Aug 23 15:02:46 2020, MaxMem=    65536000 cpu:               0.2 elap:               0.1
 (Enter /root/wbh/soft/g16/l502.exe)
 Keep R1 ints in memory in symmetry-blocked form, NReq=1773122.
 FoFCou: FMM=F IPFlag=           0 FMFlag=           0 FMFlg1=           0
         NFxFlg=           0 DoJE=F BraDBF=F KetDBF=F FulRan=T
         wScrn=  0.000000 ICntrl=       600 IOpCl=  0 I1Cent=           0 NGrid=           0
         NMat0=    1 NMatS0=    300 NMatT0=    0 NMatD0=    1 NMtDS0=    0 NMtDT0=    0
 Petite list used in FoFCou.
 Closed shell SCF:
 Using DIIS extrapolation, IDIIS=  1040.
 NGot=    65536000 LenX=    65508776 LenY=    65507710
 Requested convergence on RMS density matrix=1.00D-08 within 128 cycles.
 Requested convergence on MAX density matrix=1.00D-06.
 Requested convergence on             energy=1.00D-06.
 No special actions if energy rises.
 Integral accuracy reduced to 1.0D-05 until final iterations.

 Cycle   1  Pass 0  IDiag  1:
 E= -76.2537708827139    
 DIIS: error= 6.53D-02 at cycle   1 NSaved=   1.
 NSaved= 1 IEnMin= 1 EnMin= -76.2537708827139     IErMin= 1 ErrMin= 6.53D-02
 ErrMax= 6.53D-02  0.00D+00 EMaxC= 1.00D-01 BMatC= 9.04D-02 BMatP= 9.04D-02
 IDIUse=3 WtCom= 3.47D-01 WtEn= 6.53D-01
 Coeff-Com:  0.100D+01
 Coeff-En:   0.100D+01
 Coeff:      0.100D+01
 Gap=     0.159 Goal=   None    Shift=    0.000
 GapD=    0.159 DampG=1.000 DampE=0.500 DampFc=0.5000 IDamp=-1.
 Damping current iteration by 5.00D-01
 RMSDP=2.46D-02 MaxDP=2.13D-01              OVMax= 2.58D-01

 Cycle   2  Pass 0  IDiag  1:
 E= -76.2671808348335     Delta-E=       -0.013409952120 Rises=F Damp=T
 DIIS: error= 1.93D-02 at cycle   2 NSaved=   2.
 NSaved= 2 IEnMin= 2 EnMin= -76.2671808348335     IErMin= 2 ErrMin= 1.93D-02
 ErrMax= 1.93D-02  0.00D+00 EMaxC= 1.00D-01 BMatC= 1.32D-02 BMatP= 9.04D-02
 IDIUse=3 WtCom= 8.07D-01 WtEn= 1.93D-01
 Coeff-Com:  0.270D+00 0.730D+00
 Coeff-En:   0.422D+00 0.578D+00
 Coeff:      0.300D+00 0.700D+00
 Gap=     0.290 Goal=   None    Shift=    0.000
 RMSDP=3.80D-03 MaxDP=4.55D-02 DE=-1.34D-02 OVMax= 1.54D-01

 Cycle   3  Pass 0  IDiag  1:
 E= -76.3272734351055     Delta-E=       -0.060092600272 Rises=F Damp=F
 DIIS: error= 4.04D-03 at cycle   3 NSaved=   3.
 NSaved= 3 IEnMin= 3 EnMin= -76.3272734351055     IErMin= 3 ErrMin= 4.04D-03
 ErrMax= 4.04D-03  0.00D+00 EMaxC= 1.00D-01 BMatC= 3.91D-04 BMatP= 1.32D-02
 IDIUse=3 WtCom= 9.60D-01 WtEn= 4.04D-02
 Coeff-Com:  0.454D-01-0.551D-01 0.101D+01
 Coeff-En:   0.000D+00 0.000D+00 0.100D+01
 Coeff:      0.436D-01-0.529D-01 0.101D+01
 Gap=     0.304 Goal=   None    Shift=    0.000
 RMSDP=5.63D-04 MaxDP=5.56D-03 DE=-6.01D-02 OVMax= 5.27D-03

 Cycle   4  Pass 0  IDiag  1:
 E= -76.3275612108766     Delta-E=       -0.000287775771 Rises=F Damp=F
 DIIS: error= 2.63D-04 at cycle   4 NSaved=   4.
 NSaved= 4 IEnMin= 4 EnMin= -76.3275612108766     IErMin= 4 ErrMin= 2.63D-04
 ErrMax= 2.63D-04  0.00D+00 EMaxC= 1.00D-01 BMatC= 1.67D-06 BMatP= 3.91D-04
 IDIUse=3 WtCom= 9.97D-01 WtEn= 2.63D-03
 Coeff-Com:  0.829D-02-0.251D-01 0.253D+00 0.763D+00
 Coeff-En:   0.000D+00 0.000D+00 0.000D+00 0.100D+01
 Coeff:      0.827D-02-0.250D-01 0.253D+00 0.764D+00
 Gap=     0.304 Goal=   None    Shift=    0.000
 RMSDP=3.24D-05 MaxDP=1.97D-04 DE=-2.88D-04 OVMax= 2.62D-04

 Cycle   5  Pass 0  IDiag  1:
 E= -76.3275621859580     Delta-E=       -0.000000975081 Rises=F Damp=F
 DIIS: error= 1.03D-04 at cycle   5 NSaved=   5.
 NSaved= 5 IEnMin= 5 EnMin= -76.3275621859580     IErMin= 5 ErrMin= 1.03D-04
 ErrMax= 1.03D-04  0.00D+00 EMaxC= 1.00D-01 BMatC= 2.08D-07 BMatP= 1.67D-06
 IDIUse=3 WtCom= 9.99D-01 WtEn= 1.03D-03
 Coeff-Com:  0.136D-02-0.210D-02 0.999D-02 0.493D-01 0.941D+00
 Coeff-En:   0.000D+00 0.000D+00 0.000D+00 0.000D+00 0.100D+01
 Coeff:      0.136D-02-0.209D-02 0.998D-02 0.493D-01 0.941D+00
 Gap=     0.305 Goal=   None    Shift=    0.000
 RMSDP=1.33D-05 MaxDP=9.42D-05 DE=-9.75D-07 OVMax= 1.54D-04

 Cycle   6  Pass 0  IDiag  1:
 E= -76.3275623574836     Delta-E=       -0.000000171526 Rises=F Damp=F
 DIIS: error= 3.19D-06 at cycle   6 NSaved=   6.
 NSaved= 6 IEnMin= 6 EnMin= -76.3275623574836     IErMin= 6 ErrMin= 3.19D-06
 ErrMax= 3.19D-06  0.00D+00 EMaxC= 1.00D-01 BMatC= 2.48D-10 BMatP= 2.08D-07
 IDIUse=1 WtCom= 1.00D+00 WtEn= 0.00D+00
 Coeff-Com:  0.415D-04-0.973D-04 0.522D-03-0.120D-02-0.254D-02 0.100D+01
 Coeff:      0.415D-04-0.973D-04 0.522D-03-0.120D-02-0.254D-02 0.100D+01
 Gap=     0.305 Goal=   None    Shift=    0.000
 RMSDP=4.58D-07 MaxDP=4.42D-06 DE=-1.72D-07 OVMax= 3.72D-06

 Initial convergence to 1.0D-05 achieved.  Increase integral accuracy.
 Cycle   7  Pass 1  IDiag  1:
 E= -76.3275605137537     Delta-E=        0.000001843730 Rises=F Damp=F
 DIIS: error= 6.78D-07 at cycle   1 NSaved=   1.
 NSaved= 1 IEnMin= 1 EnMin= -76.3275605137537     IErMin= 1 ErrMin= 6.78D-07
 ErrMax= 6.78D-07  0.00D+00 EMaxC= 1.00D-01 BMatC= 7.88D-12 BMatP= 7.88D-12
 IDIUse=1 WtCom= 1.00D+00 WtEn= 0.00D+00
 Coeff-Com:  0.100D+01
 Coeff:      0.100D+01
 Gap=     0.305 Goal=   None    Shift=    0.000
 RMSDP=4.58D-07 MaxDP=4.42D-06 DE= 1.84D-06 OVMax= 2.79D-06

 Cycle   8  Pass 1  IDiag  1:
 E= -76.3275605137473     Delta-E=        0.000000000006 Rises=F Damp=F
 DIIS: error= 8.95D-07 at cycle   2 NSaved=   2.
 NSaved= 2 IEnMin= 1 EnMin= -76.3275605137537     IErMin= 1 ErrMin= 6.78D-07
 ErrMax= 8.95D-07  0.00D+00 EMaxC= 1.00D-01 BMatC= 1.81D-11 BMatP= 7.88D-12
 IDIUse=1 WtCom= 1.00D+00 WtEn= 0.00D+00
 Coeff-Com:  0.612D+00 0.388D+00
 Coeff:      0.612D+00 0.388D+00
 Gap=     0.305 Goal=   None    Shift=    0.000
 RMSDP=1.25D-07 MaxDP=1.03D-06 DE= 6.34D-12 OVMax= 1.32D-06

 Cycle   9  Pass 1  IDiag  1:
 E= -76.3275605137614     Delta-E=       -0.000000000014 Rises=F Damp=F
 DIIS: error= 5.40D-08 at cycle   3 NSaved=   3.
 NSaved= 3 IEnMin= 3 EnMin= -76.3275605137614     IErMin= 3 ErrMin= 5.40D-08
 ErrMax= 5.40D-08  0.00D+00 EMaxC= 1.00D-01 BMatC= 9.80D-14 BMatP= 7.88D-12
 IDIUse=1 WtCom= 1.00D+00 WtEn= 0.00D+00
 Coeff-Com:  0.655D-01 0.812D-01 0.853D+00
 Coeff:      0.655D-01 0.812D-01 0.853D+00
 Gap=     0.305 Goal=   None    Shift=    0.000
 RMSDP=1.22D-08 MaxDP=9.47D-08 DE=-1.41D-11 OVMax= 1.13D-07

 Cycle  10  Pass 1  IDiag  1:
 E= -76.3275605137615     Delta-E=        0.000000000000 Rises=F Damp=F
 DIIS: error= 1.31D-08 at cycle   4 NSaved=   4.
 NSaved= 4 IEnMin= 4 EnMin= -76.3275605137615     IErMin= 4 ErrMin= 1.31D-08
 ErrMax= 1.31D-08  0.00D+00 EMaxC= 1.00D-01 BMatC= 4.34D-15 BMatP= 9.80D-14
 IDIUse=1 WtCom= 1.00D+00 WtEn= 0.00D+00
 Coeff-Com: -0.436D-02 0.815D-02 0.200D+00 0.796D+00
 Coeff:     -0.436D-02 0.815D-02 0.200D+00 0.796D+00
 Gap=     0.305 Goal=   None    Shift=    0.000
 RMSDP=1.93D-09 MaxDP=1.25D-08 DE=-7.11D-14 OVMax= 1.92D-08

 SCF Done:  E(RB3LYP) =  -76.3275605138     A.U. after   10 cycles
            NFock= 10  Conv=0.19D-08     -V/T= 2.0089
 KE= 7.565320496073D+01 PE=-1.971073973415D+02 EE= 3.678332363565D+01
 Leave Link  502 at Sun Aug 23 15:02:46 2020, MaxMem=    65536000 cpu:               0.6 elap:               0.3
 (Enter /root/wbh/soft/g16/l601.exe)
 Copying SCF densities to generalized density rwf, IOpCl= 0 IROHF=0.

 **********************************************************************

            Population analysis using the SCF Density.

 **********************************************************************

 Orbital symmetries:
       Occupied  (A') (A') (A') (A') (A")
       Virtual   (A') (A') (A') (A') (A") (A') (A') (A') (A') (A")
                 (A") (A') (A') (A') (A") (A') (A") (A') (A')
 The electronic state is 1-A'.
 Alpha  occ. eigenvalues --  -19.14571  -0.96442  -0.42877  -0.42001  -0.29444
 Alpha virt. eigenvalues --    0.01009   0.09122   0.47190   0.55962   0.90584
 Alpha virt. eigenvalues --    0.91786   1.02306   1.07156   1.22761   1.37174
 Alpha virt. eigenvalues --    1.45112   1.78263   2.07279   2.18101   2.82491
 Alpha virt. eigenvalues --    2.87447   2.93806   3.43349   3.71217
          Condensed to atoms (all electrons):
               1          2          3
     1  O    7.798722   0.255636   0.254868
     2  H    0.255636   0.637712  -0.047727
     3  H    0.254868  -0.047727   0.638013
 Mulliken charges:
               1
     1  O   -0.309226
     2  H    0.154379
     3  H    0.154847
 Sum of Mulliken charges =   0.00000
 Mulliken charges with hydrogens summed into heavy atoms:
               1
     1  O    0.000000
 Electronic spatial extent (au):  <R**2>=             20.4390
 Charge=              0.0000 electrons
 Dipole moment (field-independent basis, Debye):
    X=              0.0040    Y=             -2.3523    Z=              0.0000  Tot=              2.3523
 Quadrupole moment (field-independent basis, Debye-Ang):
   XX=             -5.5305   YY=             -5.1983   ZZ=             -7.2040
   XY=              0.0035   XZ=              0.0000   YZ=              0.0000
 Traceless Quadrupole moment (field-independent basis, Debye-Ang):
   XX=              0.4471   YY=              0.7793   ZZ=             -1.2264
   XY=              0.0035   XZ=              0.0000   YZ=              0.0000
 Octapole moment (field-independent basis, Debye-Ang**2):
  XXX=              0.0087  YYY=             -1.4189  ZZZ=              0.0000  XYY=             -0.0030
  XXY=             -0.9209  XXZ=              0.0000  XZZ=              0.0028  YZZ=             -0.2242
  YYZ=              0.0000  XYZ=              0.0000
 Hexadecapole moment (field-independent basis, Debye-Ang**3):
 XXXX=             -7.5118 YYYY=             -7.6082 ZZZZ=             -5.1066 XXXY=             -0.0083
 XXXZ=              0.0000 YYYX=             -0.0023 YYYZ=              0.0000 ZZZX=              0.0000
 ZZZY=              0.0000 XXYY=             -1.9933 XXZZ=             -2.2155 YYZZ=             -2.3093
 XXYZ=              0.0000 YYXZ=              0.0000 ZZXY=             -0.0034
 N-N= 8.343308231371D+00 E-N=-1.971073971972D+02  KE= 7.565320496073D+01
 Symmetry A'   KE= 7.097185443228D+01
 Symmetry A"   KE= 4.681350528446D+00
 No NMR shielding tensors so no spin-rotation constants.
 Leave Link  601 at Sun Aug 23 15:02:46 2020, MaxMem=    65536000 cpu:               0.1 elap:               0.1
 (Enter /root/wbh/soft/g16/l701.exe)
 ... and contract with generalized density number  0.
 Compute integral first derivatives.
   2 Symmetry operations used in ECPInt.
 ECPInt:  NShTT=      78 NPrTT=     272 LenC2=      79 LenP2D=     270.
 LDataN:  DoStor=T MaxTD1= 5 Len=  102
 Leave Link  701 at Sun Aug 23 15:02:46 2020, MaxMem=    65536000 cpu:               0.1 elap:               0.1
 (Enter /root/wbh/soft/g16/l702.exe)
 L702 exits ... SP integral derivatives will be done elsewhere.
 Leave Link  702 at Sun Aug 23 15:02:46 2020, MaxMem=    65536000 cpu:               0.0 elap:               0.0
 (Enter /root/wbh/soft/g16/l703.exe)
 Integral derivatives from FoFJK, PRISM(SPDF).
 Compute integral first derivatives, UseDBF=F ICtDFT=           0.
 Calling FoFJK, ICntrl=      2127 FMM=F ISym2X=1 I1Cent= 0 IOpClX= 0 NMat=1 NMatS=1 NMatT=0.
 FoFJK:  IHMeth= 1 ICntrl=    2127 DoSepK=F KAlg= 0 I1Cent=           0 FoldK=F
 IRaf=         0 NMat=       1 IRICut=       1 DoRegI=T DoRafI=F ISym2E= 1 IDoP0=0 IntGTp=1.
 FoFCou: FMM=F IPFlag=           0 FMFlag=      100000 FMFlg1=         800
         NFxFlg=           0 DoJE=F BraDBF=F KetDBF=F FulRan=T
         wScrn=  0.000000 ICntrl=      2127 IOpCl=  0 I1Cent=           0 NGrid=           0
         NMat0=    1 NMatS0=      1 NMatT0=    0 NMatD0=    1 NMtDS0=    0 NMtDT0=    0
 Petite list used in FoFCou.
 Leave Link  703 at Sun Aug 23 15:02:46 2020, MaxMem=    65536000 cpu:               0.3 elap:               0.1
 (Enter /root/wbh/soft/g16/l716.exe)
 Dipole        = 1.58603629D-03-9.25464662D-01 7.98384421D-17
 ***** Axes restored to original set *****
 -------------------------------------------------------------------
 Center     Atomic                   Forces (Hartrees/Bohr)
 Number     Number              X              Y              Z
 -------------------------------------------------------------------
      1        8          -0.046694359    0.102034081    0.070744098
      2        1           0.023896356   -0.050631680   -0.034333106
      3        1           0.022798003   -0.051402400   -0.036410992
 -------------------------------------------------------------------
 Cartesian Forces:  Max     0.102034081 RMS     0.054157307
 Z-matrix is all fixed cartesians, so copy forces.
 Force constants in Cartesian coordinates: 
                1             2             3             4             5 
      1  0.544100D+00
      2  0.185639D+00  0.714352D+00
      3 -0.265869D+00 -0.139634D+00  0.552404D+00
      4 -0.198816D+00  0.174923D+00 -0.505213D-02  0.531639D+00
      5  0.195176D+00 -0.187560D+00 -0.137342D-01  0.173197D+00  0.574380D+00
      6  0.188490D-01 -0.352776D-01 -0.215822D-01 -0.293807D+00 -0.318054D+00
      7 -0.242209D-01 -0.436083D-02 -0.309106D-01 -0.117598D-01 -0.121717D-01
      8 -0.246138D-01 -0.131608D+00 -0.181496D+00  0.808122D-02  0.836425D-02
      9 -0.548117D-01 -0.159953D+00 -0.247069D+00 -0.297221D-02 -0.307631D-02
                6             7             8             9 
      6  0.312127D+00
      7 -0.268733D-01  0.357044D+00
      8  0.184670D-01  0.372734D+00  0.518428D+00
      9 -0.679203D-02 -0.244048D+00 -0.171836D+00  0.537614D+00
 Leave Link  716 at Sun Aug 23 15:02:46 2020, MaxMem=    65536000 cpu:               0.0 elap:               0.0
 (Enter /root/wbh/soft/g16/l103.exe)

 GradGradGradGradGradGradGradGradGradGradGradGradGradGradGradGradGradGrad
 Berny optimization.
 Search for a local minimum.
 Step number   1 out of a maximum of    2
 All quantities printed in internal units (Hartrees-Bohrs-Radians)
 Second derivative matrix not updated -- first step.
 The second derivative matrix:
                          X1        Y1        Z1        X2        Y2
           X1           0.54410
           Y1           0.18564   0.71435
           Z1          -0.26587  -0.13963   0.55240
           X2          -0.19882   0.17492  -0.00505   0.53164
           Y2           0.19518  -0.18756  -0.01373   0.17320   0.57438
           Z2           0.01885  -0.03528  -0.02158  -0.29381  -0.31805
           X3          -0.02422  -0.00436  -0.03091  -0.01176  -0.01217
           Y3          -0.02461  -0.13161  -0.18150   0.00808   0.00836
           Z3          -0.05481  -0.15995  -0.24707  -0.00297  -0.00308
                          Z2        X3        Y3        Z3
           Z2           0.31213
           X3          -0.02687   0.35704
           Y3           0.01847   0.37273   0.51843
           Z3          -0.00679  -0.24405  -0.17184   0.53761
 ITU=  0
     Eigenvalues ---    0.09697   0.54838   0.71223
 Quadratic step=5.873D-01 exceeds max=3.000D-01 adjusted using Lamda=-1.159D-01.
 Angle between NR and scaled steps=  13.78 degrees.
 Angle between quadratic step and forces=  44.19 degrees.
 ClnCor:  largest displacement from symmetrization is 1.78D-16 for atom     2.
 Linear search not attempted -- first point.
 ClnCor:  largest displacement from symmetrization is 1.60D-15 for atom     3.
 B after Tr=    -0.023144    0.047164    0.031042
         Rot=    1.000000    0.000106    0.000117   -0.000100 Ang=   0.02 deg.
 Variable       Old X    -DE/DX   Delta X   Delta X   Delta X     New X
                                 (Linear)    (Quad)   (Total)
    X1       19.22624  -0.04669   0.00000  -0.03864  -0.06195  19.16429
    Y1       -2.19881   0.10203   0.00000   0.08457   0.13608  -2.06273
    Z1        2.41604   0.07074   0.00000   0.05870   0.09470   2.51074
    X2       17.74477   0.02390   0.00000  -0.03609  -0.05959  17.68518
    Y2       -0.83685  -0.05063   0.00000  -0.10540  -0.05423  -0.89108
    Z2        2.44747  -0.03433   0.00000  -0.16278  -0.12738   2.32009
    X3       19.56384   0.02280   0.00000   0.14539   0.12153  19.68537
    Y3       -1.09740  -0.05140   0.00000  -0.13380  -0.08185  -1.17925
    Z3        4.07497  -0.03641   0.00000  -0.00325   0.03268   4.10765
         Item               Value     Threshold  Converged?
 Maximum Force            0.102034     0.000450     NO 
 RMS     Force            0.054157     0.000300     NO 
 Maximum Displacement     0.136079     0.001800     NO 
 RMS     Displacement     0.092242     0.001200     NO 
 Predicted change in Energy=-2.269886D-02
 GradGradGradGradGradGradGradGradGradGradGradGradGradGradGradGradGradGrad

 Leave Link  103 at Sun Aug 23 15:02:47 2020, MaxMem=    65536000 cpu:               0.0 elap:               0.0
 (Enter /root/wbh/soft/g16/l9999.exe)
 1\1\GINC-LOCALHOST\Force\RB3LYP\def2SVP\H2O1\ROOT\23-Aug-2020\0\\#p b3
 lyp def2svp force units(au)\\generate for AIMD to electronic calculate
  potential and force.\\0,1\O,10.1740875305,-1.1635605136,1.2785153725\
 H,9.390127897,-0.4428444202,1.2951449251\H,10.3527372277,-0.580717325,
 2.1563793541\\Version=EM64L-G16RevB.01\State=1-A'\HF=-76.3275605\RMSD=
 1.925e-09\RMSF=5.416e-02\Dipole=-0.3320919,0.7128104,0.4879586\Quadrup
 ole=-0.0368708,-0.0132518,0.0501226,-0.5096126,0.3292585,0.5183137\PG=
 CS [SG(H2O1)]\\@


 THERE'S SMALL CHOICE IN A BOWL OF ROTTEN APPLES.
                     SHAKESPEARE
 Job cpu time:       0 days  0 hours  0 minutes  1.9 seconds.
 Elapsed time:       0 days  0 hours  0 minutes  1.0 seconds.
 File lengths (MBytes):  RWF=      6 Int=      0 D2E=      0 Chk=      1 Scr=      1
 Normal termination of Gaussian 16 at Sun Aug 23 15:02:47 2020.
