 Entering Gaussian System, Link 0=g16
 Input=itraj_5/ground.gjf
 Output=itraj_5/ground.log
 Initial command:
 /home/public/wbh/soft/g16/l1.exe "/home/public/wbh/soft/g16/scratch/Gau-12057.inp" -scrdir="/home/public/wbh/soft/g16/scratch/"
 Default is to use a total of   2 processors:
                                2 via shared-memory
                                1 via Linda
 Entering Link 1 = /home/public/wbh/soft/g16/l1.exe PID=     12058.
  
 Copyright (c) 1988-2017, Gaussian, Inc.  All Rights Reserved.
  
 This is part of the Gaussian(R) 16 program.  It is based on
 the Gaussian(R) 09 system (copyright 2009, Gaussian, Inc.),
 the Gaussian(R) 03 system (copyright 2003, Gaussian, Inc.),
 the Gaussian(R) 98 system (copyright 1998, Gaussian, Inc.),
 the Gaussian(R) 94 system (copyright 1995, Gaussian, Inc.),
 the Gaussian 92(TM) system (copyright 1992, Gaussian, Inc.),
 the Gaussian 90(TM) system (copyright 1990, Gaussian, Inc.),
 the Gaussian 88(TM) system (copyright 1988, Gaussian, Inc.),
 the Gaussian 86(TM) system (copyright 1986, Carnegie Mellon
 University), and the Gaussian 82(TM) system (copyright 1983,
 Carnegie Mellon University). Gaussian is a federally registered
 trademark of Gaussian, Inc.
  
 This software contains proprietary and confidential information,
 including trade secrets, belonging to Gaussian, Inc.
  
 This software is provided under written license and may be
 used, copied, transmitted, or stored only in accord with that
 written license.
  
 The following legend is applicable only to US Government
 contracts under FAR:
  
                    RESTRICTED RIGHTS LEGEND
  
 Use, reproduction and disclosure by the US Government is
 subject to restrictions as set forth in subparagraphs (a)
 and (c) of the Commercial Computer Software - Restricted
 Rights clause in FAR 52.227-19.
  
 Gaussian, Inc.
 340 Quinnipiac St., Bldg. 40, Wallingford CT 06492
  
  
 ---------------------------------------------------------------
 Warning -- This program may not be used in any manner that
 competes with the business of Gaussian, Inc. or will provide
 assistance to any competitor of Gaussian, Inc.  The licensee
 of this program is prohibited from giving any competitor of
 Gaussian, Inc. access to this program.  By using this program,
 the user acknowledges that Gaussian, Inc. is engaged in the
 business of creating and licensing software in the field of
 computational chemistry and represents and warrants to the
 licensee that it is not a competitor of Gaussian, Inc. and that
 it will not use this program in any manner prohibited above.
 ---------------------------------------------------------------
  

 Cite this work as:
 Gaussian 16, Revision B.01,
 M. J. Frisch, G. W. Trucks, H. B. Schlegel, G. E. Scuseria, 
 M. A. Robb, J. R. Cheeseman, G. Scalmani, V. Barone, 
 G. A. Petersson, H. Nakatsuji, X. Li, M. Caricato, A. V. Marenich, 
 J. Bloino, B. G. Janesko, R. Gomperts, B. Mennucci, H. P. Hratchian, 
 J. V. Ortiz, A. F. Izmaylov, J. L. Sonnenberg, D. Williams-Young, 
 F. Ding, F. Lipparini, F. Egidi, J. Goings, B. Peng, A. Petrone, 
 T. Henderson, D. Ranasinghe, V. G. Zakrzewski, J. Gao, N. Rega, 
 G. Zheng, W. Liang, M. Hada, M. Ehara, K. Toyota, R. Fukuda, 
 J. Hasegawa, M. Ishida, T. Nakajima, Y. Honda, O. Kitao, H. Nakai, 
 T. Vreven, K. Throssell, J. A. Montgomery, Jr., J. E. Peralta, 
 F. Ogliaro, M. J. Bearpark, J. J. Heyd, E. N. Brothers, K. N. Kudin, 
 V. N. Staroverov, T. A. Keith, R. Kobayashi, J. Normand, 
 K. Raghavachari, A. P. Rendell, J. C. Burant, S. S. Iyengar, 
 J. Tomasi, M. Cossi, J. M. Millam, M. Klene, C. Adamo, R. Cammi, 
 J. W. Ochterski, R. L. Martin, K. Morokuma, O. Farkas, 
 J. B. Foresman, and D. J. Fox, Gaussian, Inc., Wallingford CT, 2016.
 
 ******************************************
 Gaussian 16:  EM64L-G16RevB.01 20-Dec-2017
                 8-Sep-2020 
 ******************************************
  %mem=500MB
  %nproc=2
 Will use up to    2 processors via shared memory.
 ---------------------------------------
 #p b3lyp def2svp force units(au) nosymm
 ---------------------------------------
 1/10=7,20=1,30=1,38=1/1,3;
 2/12=2,15=1,17=6,18=5,40=1/2;
 3/5=43,7=101,11=2,25=1,30=1,71=1,74=-5/1,2,3;
 4//1;
 5/5=2,38=5/2;
 6/7=2,8=2,9=2,10=2,28=1/1;
 7/29=1,30=1/1,2,3,16;
 1/10=7,30=1/3;
 99//99;
 Leave Link    1 at Tue Sep  8 20:02:07 2020, MaxMem=    65536000 cpu:               0.1 elap:               0.0
 (Enter /home/public/wbh/soft/g16/l101.exe)
 --------------------------------------------------------------
 generate for AIMD to electronic calculate potential and force.
 --------------------------------------------------------------
 Symbolic Z-matrix:
 Charge =  0 Multiplicity = 1
 O                     2.60353  -0.45182   2.40484 
 H                     4.00899  -0.82808   1.07115 
 H                     2.1288   -1.72365   0.86398 
 
 ITRead=  0  0  0
 MicOpt= -1 -1 -1
 NAtoms=      3 NQM=        3 NQMF=       0 NMMI=      0 NMMIF=      0
                NMic=       0 NMicF=      0.
                    Isotopes and Nuclear Properties:
 (Nuclear quadrupole moments (NQMom) in fm**2, nuclear magnetic moments (NMagM)
  in nuclear magnetons)

  Atom         1           2           3
 IAtWgt=          16           1           1
 AtmWgt=  15.9949146   1.0078250   1.0078250
 NucSpn=           0           1           1
 AtZEff=   0.0000000   0.0000000   0.0000000
 NQMom=    0.0000000   0.0000000   0.0000000
 NMagM=    0.0000000   2.7928460   2.7928460
 AtZNuc=   8.0000000   1.0000000   1.0000000
 Leave Link  101 at Tue Sep  8 20:02:07 2020, MaxMem=    65536000 cpu:               0.1 elap:               0.1
 (Enter /home/public/wbh/soft/g16/l103.exe)

 GradGradGradGradGradGradGradGradGradGradGradGradGradGradGradGradGradGrad
 Berny optimization.
 Initialization pass.
 Trust Radius=3.00D-01 FncErr=1.00D-07 GrdErr=1.00D-07 EigMax=2.50D+02 EigMin=1.00D-04
 Number of steps in this run=      2 maximum allowed number of steps=      2.
 GradGradGradGradGradGradGradGradGradGradGradGradGradGradGradGradGradGrad

 Leave Link  103 at Tue Sep  8 20:02:07 2020, MaxMem=    65536000 cpu:               0.0 elap:               0.0
 (Enter /home/public/wbh/soft/g16/l202.exe)
                          Input orientation:                          
 ---------------------------------------------------------------------
 Center     Atomic      Atomic             Coordinates (Angstroms)
 Number     Number       Type             X           Y           Z
 ---------------------------------------------------------------------
      1          8           0        1.377731   -0.239094    1.272586
      2          1           0        2.121468   -0.438203    0.566830
      3          1           0        1.126515   -0.912114    0.457196
 ---------------------------------------------------------------------
                    Distance matrix (angstroms):
                    1          2          3
     1  O    0.000000
     2  H    1.044452   0.000000
     3  H    1.086705   1.107494   0.000000
 Symmetry turned off by external request.
 Stoichiometry    H2O
 Framework group  CS[SG(H2O)]
 Deg. of freedom     3
 Full point group                 CS      NOp   2
 Rotational constants (GHZ):         820.4668142         339.9671804         240.3685093
 Leave Link  202 at Tue Sep  8 20:02:07 2020, MaxMem=    65536000 cpu:               0.0 elap:               0.0
 (Enter /home/public/wbh/soft/g16/l301.exe)
 Standard basis: def2SVP (5D, 7F)
 Ernie: Thresh=  0.10000D-02 Tol=  0.10000D-05 Strict=F.
    24 basis functions,    39 primitive gaussians,    25 cartesian basis functions
     5 alpha electrons        5 beta electrons
       nuclear repulsion energy         8.4267031760 Hartrees.
 IExCor=  402 DFT=T Ex+Corr=B3LYP ExCW=0 ScaHFX=  0.200000
 ScaDFX=  0.800000  0.720000  1.000000  0.810000 ScalE2=  1.000000  1.000000
 IRadAn=      5 IRanWt=     -1 IRanGd=            0 ICorTp=0 IEmpDi=  4
 NAtoms=    3 NActive=    3 NUniq=    3 SFac= 1.00D+00 NAtFMM=   60 NAOKFM=F Big=F
 Integral buffers will be    131072 words long.
 Raffenetti 2 integral format.
 Two-electron integral symmetry is turned off.
 Leave Link  301 at Tue Sep  8 20:02:07 2020, MaxMem=    65536000 cpu:               0.1 elap:               0.0
 (Enter /home/public/wbh/soft/g16/l302.exe)
 NPDir=0 NMtPBC=     1 NCelOv=     1 NCel=       1 NClECP=     1 NCelD=      1
         NCelK=      1 NCelE2=     1 NClLst=     1 CellRange=     0.0.
 One-electron integrals computed using PRISM.
   1 Symmetry operations used in ECPInt.
 ECPInt:  NShTT=      78 NPrTT=     272 LenC2=      79 LenP2D=     269.
 LDataN:  DoStor=T MaxTD1= 4 Len=   56
 NBasis=    24 RedAO= T EigKep=  4.54D-02  NBF=    24
 NBsUse=    24 1.00D-06 EigRej= -1.00D+00 NBFU=    24
 Precomputing XC quadrature grid using
 IXCGrd= 4 IRadAn=           5 IRanWt=          -1 IRanGd=           0 AccXCQ= 0.00D+00.
 Generated NRdTot=       0 NPtTot=           0 NUsed=           0 NTot=          32
 NSgBfM=    25    25    25    25    25 MxSgAt=     3 MxSgA2=     3.
 Leave Link  302 at Tue Sep  8 20:02:07 2020, MaxMem=    65536000 cpu:               0.2 elap:               0.1
 (Enter /home/public/wbh/soft/g16/l303.exe)
 DipDrv:  MaxL=1.
 Leave Link  303 at Tue Sep  8 20:02:07 2020, MaxMem=    65536000 cpu:               0.0 elap:               0.0
 (Enter /home/public/wbh/soft/g16/l401.exe)
 ExpMin= 1.22D-01 ExpMax= 2.27D+03 ExpMxC= 3.41D+02 IAcc=3 IRadAn=         5 AccDes= 0.00D+00
 Harris functional with IExCor=  402 and IRadAn=       5 diagonalized for initial guess.
 HarFok:  IExCor=  402 AccDes= 0.00D+00 IRadAn=         5 IDoV= 1 UseB2=F ITyADJ=14
 ICtDFT=  3500011 ScaDFX=  1.000000  1.000000  1.000000  1.000000
 FoFCou: FMM=F IPFlag=           0 FMFlag=      100000 FMFlg1=           0
         NFxFlg=           0 DoJE=T BraDBF=F KetDBF=T FulRan=T
         wScrn=  0.000000 ICntrl=       500 IOpCl=  0 I1Cent=   200000004 NGrid=           0
         NMat0=    1 NMatS0=      1 NMatT0=    0 NMatD0=    1 NMtDS0=    0 NMtDT0=    0
 Symmetry not used in FoFCou.
 Harris En= -76.3371540577893    
 JPrj=0 DoOrth=F DoCkMO=F.
 Leave Link  401 at Tue Sep  8 20:02:08 2020, MaxMem=    65536000 cpu:               0.7 elap:               0.3
 (Enter /home/public/wbh/soft/g16/l502.exe)
 Keep R1 ints in memory in canonical form, NReq=1772088.
 FoFCou: FMM=F IPFlag=           0 FMFlag=           0 FMFlg1=           0
         NFxFlg=           0 DoJE=F BraDBF=F KetDBF=F FulRan=T
         wScrn=  0.000000 ICntrl=       600 IOpCl=  0 I1Cent=           0 NGrid=           0
         NMat0=    1 NMatS0=    300 NMatT0=    0 NMatD0=    1 NMtDS0=    0 NMtDT0=    0
 Symmetry not used in FoFCou.
 Two-electron integral symmetry not used.
 Closed shell SCF:
 Using DIIS extrapolation, IDIIS=  1040.
 NGot=    65536000 LenX=    65489078 LenY=    65488012
 Requested convergence on RMS density matrix=1.00D-08 within 128 cycles.
 Requested convergence on MAX density matrix=1.00D-06.
 Requested convergence on             energy=1.00D-06.
 No special actions if energy rises.
 Integral accuracy reduced to 1.0D-05 until final iterations.

 Cycle   1  Pass 0  IDiag  1:
 E= -76.2285132179100    
 DIIS: error= 6.69D-02 at cycle   1 NSaved=   1.
 NSaved= 1 IEnMin= 1 EnMin= -76.2285132179100     IErMin= 1 ErrMin= 6.69D-02
 ErrMax= 6.69D-02  0.00D+00 EMaxC= 1.00D-01 BMatC= 9.22D-02 BMatP= 9.22D-02
 IDIUse=3 WtCom= 3.31D-01 WtEn= 6.69D-01
 Coeff-Com:  0.100D+01
 Coeff-En:   0.100D+01
 Coeff:      0.100D+01
 Gap=     0.151 Goal=   None    Shift=    0.000
 GapD=    0.151 DampG=1.000 DampE=0.500 DampFc=0.5000 IDamp=-1.
 Damping current iteration by 5.00D-01
 RMSDP=2.72D-02 MaxDP=2.19D-01              OVMax= 2.70D-01

 Cycle   2  Pass 0  IDiag  1:
 E= -76.2399873112833     Delta-E=       -0.011474093373 Rises=F Damp=T
 DIIS: error= 2.44D-02 at cycle   2 NSaved=   2.
 NSaved= 2 IEnMin= 2 EnMin= -76.2399873112833     IErMin= 2 ErrMin= 2.44D-02
 ErrMax= 2.44D-02  0.00D+00 EMaxC= 1.00D-01 BMatC= 1.51D-02 BMatP= 9.22D-02
 IDIUse=3 WtCom= 7.56D-01 WtEn= 2.44D-01
 Coeff-Com:  0.283D+00 0.717D+00
 Coeff-En:   0.438D+00 0.562D+00
 Coeff:      0.321D+00 0.679D+00
 Gap=     0.280 Goal=   None    Shift=    0.000
 RMSDP=4.31D-03 MaxDP=4.54D-02 DE=-1.15D-02 OVMax= 1.67D-01

 Cycle   3  Pass 0  IDiag  1:
 E= -76.3043315361707     Delta-E=       -0.064344224887 Rises=F Damp=F
 DIIS: error= 5.62D-03 at cycle   3 NSaved=   3.
 NSaved= 3 IEnMin= 3 EnMin= -76.3043315361707     IErMin= 3 ErrMin= 5.62D-03
 ErrMax= 5.62D-03  0.00D+00 EMaxC= 1.00D-01 BMatC= 7.05D-04 BMatP= 1.51D-02
 IDIUse=3 WtCom= 9.44D-01 WtEn= 5.62D-02
 Coeff-Com:  0.510D-01-0.104D+00 0.105D+01
 Coeff-En:   0.000D+00 0.000D+00 0.100D+01
 Coeff:      0.481D-01-0.982D-01 0.105D+01
 Gap=     0.296 Goal=   None    Shift=    0.000
 RMSDP=7.82D-04 MaxDP=7.12D-03 DE=-6.43D-02 OVMax= 7.79D-03

 Cycle   4  Pass 0  IDiag  1:
 E= -76.3048579370360     Delta-E=       -0.000526400865 Rises=F Damp=F
 DIIS: error= 1.46D-04 at cycle   4 NSaved=   4.
 NSaved= 4 IEnMin= 4 EnMin= -76.3048579370360     IErMin= 4 ErrMin= 1.46D-04
 ErrMax= 1.46D-04  0.00D+00 EMaxC= 1.00D-01 BMatC= 5.51D-07 BMatP= 7.05D-04
 IDIUse=3 WtCom= 9.99D-01 WtEn= 1.46D-03
 Coeff-Com:  0.851D-02-0.228D-01 0.208D+00 0.807D+00
 Coeff-En:   0.000D+00 0.000D+00 0.000D+00 0.100D+01
 Coeff:      0.850D-02-0.228D-01 0.207D+00 0.807D+00
 Gap=     0.296 Goal=   None    Shift=    0.000
 RMSDP=2.85D-05 MaxDP=2.75D-04 DE=-5.26D-04 OVMax= 2.93D-04

 Cycle   5  Pass 0  IDiag  1:
 E= -76.3048581774495     Delta-E=       -0.000000240413 Rises=F Damp=F
 DIIS: error= 9.84D-05 at cycle   5 NSaved=   5.
 NSaved= 5 IEnMin= 5 EnMin= -76.3048581774495     IErMin= 5 ErrMin= 9.84D-05
 ErrMax= 9.84D-05  0.00D+00 EMaxC= 1.00D-01 BMatC= 1.61D-07 BMatP= 5.51D-07
 IDIUse=1 WtCom= 1.00D+00 WtEn= 0.00D+00
 Coeff-Com:  0.126D-02-0.175D-02 0.102D-01 0.104D+00 0.887D+00
 Coeff:      0.126D-02-0.175D-02 0.102D-01 0.104D+00 0.887D+00
 Gap=     0.296 Goal=   None    Shift=    0.000
 RMSDP=1.33D-05 MaxDP=8.63D-05 DE=-2.40D-07 OVMax= 1.50D-04

 Cycle   6  Pass 0  IDiag  1:
 E= -76.3048583129276     Delta-E=       -0.000000135478 Rises=F Damp=F
 DIIS: error= 2.63D-06 at cycle   6 NSaved=   6.
 NSaved= 6 IEnMin= 6 EnMin= -76.3048583129276     IErMin= 6 ErrMin= 2.63D-06
 ErrMax= 2.63D-06  0.00D+00 EMaxC= 1.00D-01 BMatC= 2.16D-10 BMatP= 1.61D-07
 IDIUse=1 WtCom= 1.00D+00 WtEn= 0.00D+00
 Coeff-Com:  0.609D-04-0.137D-03 0.265D-03-0.664D-02 0.454D-01 0.961D+00
 Coeff:      0.609D-04-0.137D-03 0.265D-03-0.664D-02 0.454D-01 0.961D+00
 Gap=     0.296 Goal=   None    Shift=    0.000
 RMSDP=7.14D-07 MaxDP=4.77D-06 DE=-1.35D-07 OVMax= 7.41D-06

 Initial convergence to 1.0D-05 achieved.  Increase integral accuracy.
 Cycle   7  Pass 1  IDiag  1:
 E= -76.3048589821513     Delta-E=       -0.000000669224 Rises=F Damp=F
 DIIS: error= 1.01D-06 at cycle   1 NSaved=   1.
 NSaved= 1 IEnMin= 1 EnMin= -76.3048589821513     IErMin= 1 ErrMin= 1.01D-06
 ErrMax= 1.01D-06  0.00D+00 EMaxC= 1.00D-01 BMatC= 1.77D-11 BMatP= 1.77D-11
 IDIUse=1 WtCom= 1.00D+00 WtEn= 0.00D+00
 Coeff-Com:  0.100D+01
 Coeff:      0.100D+01
 Gap=     0.296 Goal=   None    Shift=    0.000
 RMSDP=7.14D-07 MaxDP=4.77D-06 DE=-6.69D-07 OVMax= 3.98D-06

 Cycle   8  Pass 1  IDiag  1:
 E= -76.3048589821346     Delta-E=        0.000000000017 Rises=F Damp=F
 DIIS: error= 1.44D-06 at cycle   2 NSaved=   2.
 NSaved= 2 IEnMin= 1 EnMin= -76.3048589821513     IErMin= 1 ErrMin= 1.01D-06
 ErrMax= 1.44D-06  0.00D+00 EMaxC= 1.00D-01 BMatC= 4.30D-11 BMatP= 1.77D-11
 IDIUse=1 WtCom= 1.00D+00 WtEn= 0.00D+00
 Coeff-Com:  0.616D+00 0.384D+00
 Coeff:      0.616D+00 0.384D+00
 Gap=     0.296 Goal=   None    Shift=    0.000
 RMSDP=2.04D-07 MaxDP=1.63D-06 DE= 1.68D-11 OVMax= 2.10D-06

 Cycle   9  Pass 1  IDiag  1:
 E= -76.3048589821683     Delta-E=       -0.000000000034 Rises=F Damp=F
 DIIS: error= 8.81D-08 at cycle   3 NSaved=   3.
 NSaved= 3 IEnMin= 3 EnMin= -76.3048589821683     IErMin= 3 ErrMin= 8.81D-08
 ErrMax= 8.81D-08  0.00D+00 EMaxC= 1.00D-01 BMatC= 2.31D-13 BMatP= 1.77D-11
 IDIUse=1 WtCom= 1.00D+00 WtEn= 0.00D+00
 Coeff-Com:  0.811D-01 0.896D-01 0.829D+00
 Coeff:      0.811D-01 0.896D-01 0.829D+00
 Gap=     0.296 Goal=   None    Shift=    0.000
 RMSDP=1.95D-08 MaxDP=1.41D-07 DE=-3.37D-11 OVMax= 1.50D-07

 Cycle  10  Pass 1  IDiag  1:
 E= -76.3048589821686     Delta-E=        0.000000000000 Rises=F Damp=F
 DIIS: error= 2.22D-08 at cycle   4 NSaved=   4.
 NSaved= 4 IEnMin= 4 EnMin= -76.3048589821686     IErMin= 4 ErrMin= 2.22D-08
 ErrMax= 2.22D-08  0.00D+00 EMaxC= 1.00D-01 BMatC= 1.01D-14 BMatP= 2.31D-13
 IDIUse=1 WtCom= 1.00D+00 WtEn= 0.00D+00
 Coeff-Com: -0.624D-02 0.866D-02 0.194D+00 0.804D+00
 Coeff:     -0.624D-02 0.866D-02 0.194D+00 0.804D+00
 Gap=     0.296 Goal=   None    Shift=    0.000
 RMSDP=3.09D-09 MaxDP=2.30D-08 DE=-3.13D-13 OVMax= 3.11D-08

 SCF Done:  E(RB3LYP) =  -76.3048589822     A.U. after   10 cycles
            NFock= 10  Conv=0.31D-08     -V/T= 2.0080
 KE= 7.569731020564D+01 PE=-1.972217110122D+02 EE= 3.679283864842D+01
 Leave Link  502 at Tue Sep  8 20:02:09 2020, MaxMem=    65536000 cpu:               2.3 elap:               1.2
 (Enter /home/public/wbh/soft/g16/l601.exe)
 Copying SCF densities to generalized density rwf, IOpCl= 0 IROHF=0.

 **********************************************************************

            Population analysis using the SCF Density.

 **********************************************************************

 Alpha  occ. eigenvalues --  -19.14947  -0.97906  -0.44925  -0.40244  -0.29794
 Alpha virt. eigenvalues --   -0.00160   0.09642   0.48080   0.50940   0.90030
 Alpha virt. eigenvalues --    0.91220   1.02602   1.02947   1.27993   1.33704
 Alpha virt. eigenvalues --    1.53964   1.80832   2.05334   2.39064   2.78965
 Alpha virt. eigenvalues --    2.79995   2.93588   3.47694   3.66652
          Condensed to atoms (all electrons):
               1          2          3
     1  O    7.829947   0.236334   0.226293
     2  H    0.236334   0.682798  -0.062950
     3  H    0.226293  -0.062950   0.687903
 Mulliken charges:
               1
     1  O   -0.292574
     2  H    0.143819
     3  H    0.148755
 Sum of Mulliken charges =   0.00000
 Mulliken charges with hydrogens summed into heavy atoms:
               1
     1  O    0.000000
 Electronic spatial extent (au):  <R**2>=            143.1156
 Charge=              0.0000 electrons
 Dipole moment (field-independent basis, Debye):
    X=              0.7067    Y=             -1.1591    Z=             -2.0512  Tot=              2.4597
 Quadrupole moment (field-independent basis, Debye-Ang):
   XX=             -4.0815   YY=             -5.7094   ZZ=            -10.1627
   XY=             -1.7590   XZ=             -2.5796   YZ=              0.3380
 Traceless Quadrupole moment (field-independent basis, Debye-Ang):
   XX=              2.5697   YY=              0.9418   ZZ=             -3.5115
   XY=             -1.7590   XZ=             -2.5796   YZ=              0.3380
 Octapole moment (field-independent basis, Debye-Ang**2):
  XXX=            -21.2121  YYY=              5.4347  ZZZ=            -27.5707  XYY=             -8.1432
  XXY=             -0.8786  XXZ=            -10.5382  XZZ=            -14.4166  YZZ=              3.5892
  YYZ=             -7.7053  XYZ=              0.4534
 Hexadecapole moment (field-independent basis, Debye-Ang**3):
 XXXX=            -69.9818 YYYY=             -9.5922 ZZZZ=            -65.8437 XXXY=              3.1176
 XXXZ=            -34.7015 YYYX=              7.6203 YYYZ=              6.3103 ZZZX=            -39.1741
 ZZZY=              9.1010 XXYY=            -14.3889 XXZZ=            -31.4510 YYZZ=            -12.4742
 XXYZ=              2.6091 YYXZ=            -10.7882 ZZXY=              5.1168
 N-N= 8.426703175994D+00 E-N=-1.972217108711D+02  KE= 7.569731020564D+01
 No NMR shielding tensors so no spin-rotation constants.
 Leave Link  601 at Tue Sep  8 20:02:09 2020, MaxMem=    65536000 cpu:               0.3 elap:               0.1
 (Enter /home/public/wbh/soft/g16/l701.exe)
 ... and contract with generalized density number  0.
 Compute integral first derivatives.
   1 Symmetry operations used in ECPInt.
 ECPInt:  NShTT=      78 NPrTT=     272 LenC2=      79 LenP2D=     269.
 LDataN:  DoStor=T MaxTD1= 5 Len=  102
 Leave Link  701 at Tue Sep  8 20:02:09 2020, MaxMem=    65536000 cpu:               0.2 elap:               0.1
 (Enter /home/public/wbh/soft/g16/l702.exe)
 L702 exits ... SP integral derivatives will be done elsewhere.
 Leave Link  702 at Tue Sep  8 20:02:09 2020, MaxMem=    65536000 cpu:               0.0 elap:               0.0
 (Enter /home/public/wbh/soft/g16/l703.exe)
 Integral derivatives from FoFJK, PRISM(SPDF).
 Compute integral first derivatives, UseDBF=F ICtDFT=           0.
 Calling FoFJK, ICntrl=      2127 FMM=F ISym2X=0 I1Cent= 0 IOpClX= 0 NMat=1 NMatS=1 NMatT=0.
 FoFJK:  IHMeth= 1 ICntrl=    2127 DoSepK=F KAlg= 0 I1Cent=           0 FoldK=F
 IRaf=         0 NMat=       1 IRICut=       1 DoRegI=T DoRafI=F ISym2E= 0 IDoP0=0 IntGTp=1.
 FoFCou: FMM=F IPFlag=           0 FMFlag=      100000 FMFlg1=         800
         NFxFlg=           0 DoJE=F BraDBF=F KetDBF=F FulRan=T
         wScrn=  0.000000 ICntrl=      2127 IOpCl=  0 I1Cent=           0 NGrid=           0
         NMat0=    1 NMatS0=      1 NMatT0=    0 NMatD0=    1 NMtDS0=    0 NMtDT0=    0
 Symmetry not used in FoFCou.
 Leave Link  703 at Tue Sep  8 20:02:10 2020, MaxMem=    65536000 cpu:               0.9 elap:               0.5
 (Enter /home/public/wbh/soft/g16/l716.exe)
 Dipole        = 2.78024883D-01-4.56008911D-01-8.07000709D-01
 -------------------------------------------------------------------
 Center     Atomic                   Forces (Hartrees/Bohr)
 Number     Number              X              Y              Z
 -------------------------------------------------------------------
      1        8           0.025806914   -0.066781484   -0.109716758
      2        1           0.021821932    0.044712335    0.051255841
      3        1          -0.047628846    0.022069149    0.058460917
 -------------------------------------------------------------------
 Cartesian Forces:  Max     0.109716758 RMS     0.056213200
 Z-matrix is all fixed cartesians, so copy forces.
 Force constants in Cartesian coordinates: 
                1             2             3             4             5 
      1  0.227657D+00
      2 -0.100267D-01  0.159896D+00
      3 -0.143546D+00  0.233304D+00  0.413619D+00
      4 -0.199513D+00  0.423470D-01  0.173573D+00  0.222438D+00
      5  0.614954D-01 -0.269840D-01 -0.733314D-01 -0.396991D-01  0.295015D-01
      6  0.200830D+00 -0.624580D-01 -0.202949D+00 -0.182821D+00  0.645381D-01
      7 -0.281438D-01 -0.323202D-01 -0.300265D-01 -0.229248D-01 -0.217963D-01
      8 -0.514687D-01 -0.132912D+00 -0.159973D+00 -0.264783D-02 -0.251749D-02
      9 -0.572842D-01 -0.170846D+00 -0.210670D+00  0.924848D-02  0.879322D-02
                6             7             8             9 
      6  0.195683D+00
      7 -0.180093D-01  0.510686D-01
      8 -0.208008D-02  0.541165D-01  0.135429D+00
      9  0.726543D-02  0.480358D-01  0.162053D+00  0.203405D+00
 Leave Link  716 at Tue Sep  8 20:02:10 2020, MaxMem=    65536000 cpu:               0.0 elap:               0.0
 (Enter /home/public/wbh/soft/g16/l103.exe)

 GradGradGradGradGradGradGradGradGradGradGradGradGradGradGradGradGradGrad
 Berny optimization.
 Search for a local minimum.
 Step number   1 out of a maximum of    2
 All quantities printed in internal units (Hartrees-Bohrs-Radians)
 Second derivative matrix not updated -- first step.
 The second derivative matrix:
                          X1        Y1        Z1        X2        Y2
           X1           0.22766
           Y1          -0.01003   0.15990
           Z1          -0.14355   0.23330   0.41362
           X2          -0.19951   0.04235   0.17357   0.22244
           Y2           0.06150  -0.02698  -0.07333  -0.03970   0.02950
           Z2           0.20083  -0.06246  -0.20295  -0.18282   0.06454
           X3          -0.02814  -0.03232  -0.03003  -0.02292  -0.02180
           Y3          -0.05147  -0.13291  -0.15997  -0.00265  -0.00252
           Z3          -0.05728  -0.17085  -0.21067   0.00925   0.00879
                          Z2        X3        Y3        Z3
           Z2           0.19568
           X3          -0.01801   0.05107
           Y3          -0.00208   0.05412   0.13543
           Z3           0.00727   0.04804   0.16205   0.20340
 ITU=  0
     Eigenvalues ---    0.09144   0.49670   0.77097
 Quadratic step=1.030D+00 exceeds max=3.000D-01 adjusted using Lamda=-2.471D-01.
 Angle between NR and scaled steps=  14.66 degrees.
 Angle between quadratic step and forces=  38.15 degrees.
 Linear search not attempted -- first point.
 B after Tr=     0.012774   -0.032248   -0.053158
         Rot=    0.999998   -0.000599    0.001501   -0.001055 Ang=  -0.22 deg.
 Variable       Old X    -DE/DX   Delta X   Delta X   Delta X     New X
                                 (Linear)    (Quad)   (Total)
    X1        2.60353   0.02581   0.00000   0.01695   0.02376   2.62730
    Y1       -0.45182  -0.06678   0.00000  -0.04581  -0.07533  -0.52715
    Z1        2.40484  -0.10972   0.00000  -0.07483  -0.12072   2.28412
    X2        4.00899   0.02182   0.00000   0.12298   0.13368   4.14268
    Y2       -0.82808   0.04471   0.00000   0.12372   0.09877  -0.72931
    Z2        1.07115   0.05126   0.00000   0.10628   0.06469   1.13584
    X3        2.12880  -0.04763   0.00000  -0.17093  -0.15745   1.97136
    Y3       -1.72365   0.02207   0.00000   0.00584  -0.02344  -1.74709
    Z3        0.86398   0.05846   0.00000   0.10537   0.05604   0.92001
         Item               Value     Threshold  Converged?
 Maximum Force            0.109717     0.000450     NO 
 RMS     Force            0.056213     0.000300     NO 
 Maximum Displacement     0.157448     0.001800     NO 
 RMS     Displacement     0.094929     0.001200     NO 
 Predicted change in Energy=-3.102677D-02
 GradGradGradGradGradGradGradGradGradGradGradGradGradGradGradGradGradGrad

 Leave Link  103 at Tue Sep  8 20:02:10 2020, MaxMem=    65536000 cpu:               0.0 elap:               0.0
 (Enter /home/public/wbh/soft/g16/l9999.exe)
 1\1\GINC-LOCALHOST\Force\RB3LYP\def2SVP\H2O1\PUBLIC\08-Sep-2020\0\\#p 
 b3lyp def2svp force units(au) nosymm\\generate for AIMD to electronic 
 calculate potential and force.\\0,1\O,1.3777310723,-0.2390937841,1.272
 5862593\H,2.1214679989,-0.4382029169,0.5668302862\H,1.126514775,-0.912
 1142358,0.4571960713\\Version=EM64L-G16RevB.01\HF=-76.304859\RMSD=3.09
 3e-09\RMSF=5.621e-02\Dipole=0.2780249,-0.4560089,-0.8070007\Quadrupole
 =1.9105188,0.700182,-2.6107008,-1.3077986,-1.9178642,0.2513196\PG=CS [
 SG(H2O1)]\\@


 I FIND THAT THE THREE TRULY GREAT TIMES FOR THINKING THOUGHTS
 ARE WHEN I AM STANDING IN THE SHOWER, SITTING ON THE JOHN, OR WALKING.

                                    -- COLIN FLETCHER
 Job cpu time:       0 days  0 hours  0 minutes  5.2 seconds.
 Elapsed time:       0 days  0 hours  0 minutes  2.7 seconds.
 File lengths (MBytes):  RWF=      6 Int=      0 D2E=      0 Chk=      1 Scr=      1
 Normal termination of Gaussian 16 at Tue Sep  8 20:02:10 2020.
