 Entering Gaussian System, Link 0=g16
 Input=itraj_3/ground.gjf
 Output=itraj_3/ground.log
 Initial command:
 /home/public/wbh/soft/g16/l1.exe "/home/public/wbh/soft/g16/scratch/Gau-10506.inp" -scrdir="/home/public/wbh/soft/g16/scratch/"
 Default is to use a total of   2 processors:
                                2 via shared-memory
                                1 via Linda
 Entering Link 1 = /home/public/wbh/soft/g16/l1.exe PID=     10507.
  
 Copyright (c) 1988-2017, Gaussian, Inc.  All Rights Reserved.
  
 This is part of the Gaussian(R) 16 program.  It is based on
 the Gaussian(R) 09 system (copyright 2009, Gaussian, Inc.),
 the Gaussian(R) 03 system (copyright 2003, Gaussian, Inc.),
 the Gaussian(R) 98 system (copyright 1998, Gaussian, Inc.),
 the Gaussian(R) 94 system (copyright 1995, Gaussian, Inc.),
 the Gaussian 92(TM) system (copyright 1992, Gaussian, Inc.),
 the Gaussian 90(TM) system (copyright 1990, Gaussian, Inc.),
 the Gaussian 88(TM) system (copyright 1988, Gaussian, Inc.),
 the Gaussian 86(TM) system (copyright 1986, Carnegie Mellon
 University), and the Gaussian 82(TM) system (copyright 1983,
 Carnegie Mellon University). Gaussian is a federally registered
 trademark of Gaussian, Inc.
  
 This software contains proprietary and confidential information,
 including trade secrets, belonging to Gaussian, Inc.
  
 This software is provided under written license and may be
 used, copied, transmitted, or stored only in accord with that
 written license.
  
 The following legend is applicable only to US Government
 contracts under FAR:
  
                    RESTRICTED RIGHTS LEGEND
  
 Use, reproduction and disclosure by the US Government is
 subject to restrictions as set forth in subparagraphs (a)
 and (c) of the Commercial Computer Software - Restricted
 Rights clause in FAR 52.227-19.
  
 Gaussian, Inc.
 340 Quinnipiac St., Bldg. 40, Wallingford CT 06492
  
  
 ---------------------------------------------------------------
 Warning -- This program may not be used in any manner that
 competes with the business of Gaussian, Inc. or will provide
 assistance to any competitor of Gaussian, Inc.  The licensee
 of this program is prohibited from giving any competitor of
 Gaussian, Inc. access to this program.  By using this program,
 the user acknowledges that Gaussian, Inc. is engaged in the
 business of creating and licensing software in the field of
 computational chemistry and represents and warrants to the
 licensee that it is not a competitor of Gaussian, Inc. and that
 it will not use this program in any manner prohibited above.
 ---------------------------------------------------------------
  

 Cite this work as:
 Gaussian 16, Revision B.01,
 M. J. Frisch, G. W. Trucks, H. B. Schlegel, G. E. Scuseria, 
 M. A. Robb, J. R. Cheeseman, G. Scalmani, V. Barone, 
 G. A. Petersson, H. Nakatsuji, X. Li, M. Caricato, A. V. Marenich, 
 J. Bloino, B. G. Janesko, R. Gomperts, B. Mennucci, H. P. Hratchian, 
 J. V. Ortiz, A. F. Izmaylov, J. L. Sonnenberg, D. Williams-Young, 
 F. Ding, F. Lipparini, F. Egidi, J. Goings, B. Peng, A. Petrone, 
 T. Henderson, D. Ranasinghe, V. G. Zakrzewski, J. Gao, N. Rega, 
 G. Zheng, W. Liang, M. Hada, M. Ehara, K. Toyota, R. Fukuda, 
 J. Hasegawa, M. Ishida, T. Nakajima, Y. Honda, O. Kitao, H. Nakai, 
 T. Vreven, K. Throssell, J. A. Montgomery, Jr., J. E. Peralta, 
 F. Ogliaro, M. J. Bearpark, J. J. Heyd, E. N. Brothers, K. N. Kudin, 
 V. N. Staroverov, T. A. Keith, R. Kobayashi, J. Normand, 
 K. Raghavachari, A. P. Rendell, J. C. Burant, S. S. Iyengar, 
 J. Tomasi, M. Cossi, J. M. Millam, M. Klene, C. Adamo, R. Cammi, 
 J. W. Ochterski, R. L. Martin, K. Morokuma, O. Farkas, 
 J. B. Foresman, and D. J. Fox, Gaussian, Inc., Wallingford CT, 2016.
 
 ******************************************
 Gaussian 16:  EM64L-G16RevB.01 20-Dec-2017
                 8-Sep-2020 
 ******************************************
  %mem=500MB
  %nproc=2
 Will use up to    2 processors via shared memory.
 ---------------------------------------
 #p b3lyp def2svp force units(au) nosymm
 ---------------------------------------
 1/10=7,20=1,30=1,38=1/1,3;
 2/12=2,15=1,17=6,18=5,40=1/2;
 3/5=43,7=101,11=2,25=1,30=1,71=1,74=-5/1,2,3;
 4//1;
 5/5=2,38=5/2;
 6/7=2,8=2,9=2,10=2,28=1/1;
 7/29=1,30=1/1,2,3,16;
 1/10=7,30=1/3;
 99//99;
 Leave Link    1 at Tue Sep  8 19:58:35 2020, MaxMem=    65536000 cpu:               0.1 elap:               0.0
 (Enter /home/public/wbh/soft/g16/l101.exe)
 --------------------------------------------------------------
 generate for AIMD to electronic calculate potential and force.
 --------------------------------------------------------------
 Symbolic Z-matrix:
 Charge =  0 Multiplicity = 1
 O                     3.68051   0.19689   1.71376 
 H                     5.49648  -0.04786   0.93262 
 H                     4.10506  -1.5804    2.01972 
 
 ITRead=  0  0  0
 MicOpt= -1 -1 -1
 NAtoms=      3 NQM=        3 NQMF=       0 NMMI=      0 NMMIF=      0
                NMic=       0 NMicF=      0.
                    Isotopes and Nuclear Properties:
 (Nuclear quadrupole moments (NQMom) in fm**2, nuclear magnetic moments (NMagM)
  in nuclear magnetons)

  Atom         1           2           3
 IAtWgt=          16           1           1
 AtmWgt=  15.9949146   1.0078250   1.0078250
 NucSpn=           0           1           1
 AtZEff=   0.0000000   0.0000000   0.0000000
 NQMom=    0.0000000   0.0000000   0.0000000
 NMagM=    0.0000000   2.7928460   2.7928460
 AtZNuc=   8.0000000   1.0000000   1.0000000
 Leave Link  101 at Tue Sep  8 19:58:35 2020, MaxMem=    65536000 cpu:               0.1 elap:               0.1
 (Enter /home/public/wbh/soft/g16/l103.exe)

 GradGradGradGradGradGradGradGradGradGradGradGradGradGradGradGradGradGrad
 Berny optimization.
 Initialization pass.
 Trust Radius=3.00D-01 FncErr=1.00D-07 GrdErr=1.00D-07 EigMax=2.50D+02 EigMin=1.00D-04
 Number of steps in this run=      2 maximum allowed number of steps=      2.
 GradGradGradGradGradGradGradGradGradGradGradGradGradGradGradGradGradGrad

 Leave Link  103 at Tue Sep  8 19:58:35 2020, MaxMem=    65536000 cpu:               0.0 elap:               0.0
 (Enter /home/public/wbh/soft/g16/l202.exe)
                          Input orientation:                          
 ---------------------------------------------------------------------
 Center     Atomic      Atomic             Coordinates (Angstroms)
 Number     Number       Type             X           Y           Z
 ---------------------------------------------------------------------
      1          8           0        1.947640    0.104188    0.906880
      2          1           0        2.908612   -0.025325    0.493522
      3          1           0        2.172306   -0.836312    1.068788
 ---------------------------------------------------------------------
                    Distance matrix (angstroms):
                    1          2          3
     1  O    0.000000
     2  H    1.054090   0.000000
     3  H    0.980423   1.237246   0.000000
 Symmetry turned off by external request.
 Stoichiometry    H2O
 Framework group  CS[SG(H2O)]
 Deg. of freedom     3
 Full point group                 CS      NOp   2
 Rotational constants (GHZ):         665.8100209         427.5279992         260.3517127
 Leave Link  202 at Tue Sep  8 19:58:35 2020, MaxMem=    65536000 cpu:               0.0 elap:               0.0
 (Enter /home/public/wbh/soft/g16/l301.exe)
 Standard basis: def2SVP (5D, 7F)
 Ernie: Thresh=  0.10000D-02 Tol=  0.10000D-05 Strict=F.
    24 basis functions,    39 primitive gaussians,    25 cartesian basis functions
     5 alpha electrons        5 beta electrons
       nuclear repulsion energy         8.7618390326 Hartrees.
 IExCor=  402 DFT=T Ex+Corr=B3LYP ExCW=0 ScaHFX=  0.200000
 ScaDFX=  0.800000  0.720000  1.000000  0.810000 ScalE2=  1.000000  1.000000
 IRadAn=      5 IRanWt=     -1 IRanGd=            0 ICorTp=0 IEmpDi=  4
 NAtoms=    3 NActive=    3 NUniq=    3 SFac= 1.00D+00 NAtFMM=   60 NAOKFM=F Big=F
 Integral buffers will be    131072 words long.
 Raffenetti 2 integral format.
 Two-electron integral symmetry is turned off.
 Leave Link  301 at Tue Sep  8 19:58:35 2020, MaxMem=    65536000 cpu:               0.1 elap:               0.0
 (Enter /home/public/wbh/soft/g16/l302.exe)
 NPDir=0 NMtPBC=     1 NCelOv=     1 NCel=       1 NClECP=     1 NCelD=      1
         NCelK=      1 NCelE2=     1 NClLst=     1 CellRange=     0.0.
 One-electron integrals computed using PRISM.
   1 Symmetry operations used in ECPInt.
 ECPInt:  NShTT=      78 NPrTT=     272 LenC2=      79 LenP2D=     271.
 LDataN:  DoStor=T MaxTD1= 4 Len=   56
 NBasis=    24 RedAO= T EigKep=  3.97D-02  NBF=    24
 NBsUse=    24 1.00D-06 EigRej= -1.00D+00 NBFU=    24
 Precomputing XC quadrature grid using
 IXCGrd= 4 IRadAn=           5 IRanWt=          -1 IRanGd=           0 AccXCQ= 0.00D+00.
 Generated NRdTot=       0 NPtTot=           0 NUsed=           0 NTot=          32
 NSgBfM=    25    25    25    25    25 MxSgAt=     3 MxSgA2=     3.
 Leave Link  302 at Tue Sep  8 19:58:35 2020, MaxMem=    65536000 cpu:               0.2 elap:               0.1
 (Enter /home/public/wbh/soft/g16/l303.exe)
 DipDrv:  MaxL=1.
 Leave Link  303 at Tue Sep  8 19:58:35 2020, MaxMem=    65536000 cpu:               0.0 elap:               0.0
 (Enter /home/public/wbh/soft/g16/l401.exe)
 ExpMin= 1.22D-01 ExpMax= 2.27D+03 ExpMxC= 3.41D+02 IAcc=3 IRadAn=         5 AccDes= 0.00D+00
 Harris functional with IExCor=  402 and IRadAn=       5 diagonalized for initial guess.
 HarFok:  IExCor=  402 AccDes= 0.00D+00 IRadAn=         5 IDoV= 1 UseB2=F ITyADJ=14
 ICtDFT=  3500011 ScaDFX=  1.000000  1.000000  1.000000  1.000000
 FoFCou: FMM=F IPFlag=           0 FMFlag=      100000 FMFlg1=           0
         NFxFlg=           0 DoJE=T BraDBF=F KetDBF=T FulRan=T
         wScrn=  0.000000 ICntrl=       500 IOpCl=  0 I1Cent=   200000004 NGrid=           0
         NMat0=    1 NMatS0=      1 NMatT0=    0 NMatD0=    1 NMtDS0=    0 NMtDT0=    0
 Symmetry not used in FoFCou.
 Harris En= -76.3663068463311    
 JPrj=0 DoOrth=F DoCkMO=F.
 Leave Link  401 at Tue Sep  8 19:58:36 2020, MaxMem=    65536000 cpu:               0.6 elap:               0.3
 (Enter /home/public/wbh/soft/g16/l502.exe)
 Keep R1 ints in memory in canonical form, NReq=1772088.
 FoFCou: FMM=F IPFlag=           0 FMFlag=           0 FMFlg1=           0
         NFxFlg=           0 DoJE=F BraDBF=F KetDBF=F FulRan=T
         wScrn=  0.000000 ICntrl=       600 IOpCl=  0 I1Cent=           0 NGrid=           0
         NMat0=    1 NMatS0=    300 NMatT0=    0 NMatD0=    1 NMtDS0=    0 NMtDT0=    0
 Symmetry not used in FoFCou.
 Two-electron integral symmetry not used.
 Closed shell SCF:
 Using DIIS extrapolation, IDIIS=  1040.
 NGot=    65536000 LenX=    65489078 LenY=    65488012
 Requested convergence on RMS density matrix=1.00D-08 within 128 cycles.
 Requested convergence on MAX density matrix=1.00D-06.
 Requested convergence on             energy=1.00D-06.
 No special actions if energy rises.
 Integral accuracy reduced to 1.0D-05 until final iterations.

 Cycle   1  Pass 0  IDiag  1:
 E= -76.2571789626008    
 DIIS: error= 5.31D-02 at cycle   1 NSaved=   1.
 NSaved= 1 IEnMin= 1 EnMin= -76.2571789626008     IErMin= 1 ErrMin= 5.31D-02
 ErrMax= 5.31D-02  0.00D+00 EMaxC= 1.00D-01 BMatC= 9.56D-02 BMatP= 9.56D-02
 IDIUse=3 WtCom= 4.69D-01 WtEn= 5.31D-01
 Coeff-Com:  0.100D+01
 Coeff-En:   0.100D+01
 Coeff:      0.100D+01
 Gap=     0.169 Goal=   None    Shift=    0.000
 GapD=    0.169 DampG=1.000 DampE=0.500 DampFc=0.5000 IDamp=-1.
 Damping current iteration by 5.00D-01
 RMSDP=2.41D-02 MaxDP=2.10D-01              OVMax= 2.46D-01

 Cycle   2  Pass 0  IDiag  1:
 E= -76.2757393473847     Delta-E=       -0.018560384784 Rises=F Damp=T
 DIIS: error= 1.49D-02 at cycle   2 NSaved=   2.
 NSaved= 2 IEnMin= 2 EnMin= -76.2757393473847     IErMin= 2 ErrMin= 1.49D-02
 ErrMax= 1.49D-02  0.00D+00 EMaxC= 1.00D-01 BMatC= 1.02D-02 BMatP= 9.56D-02
 IDIUse=3 WtCom= 8.51D-01 WtEn= 1.49D-01
 Coeff-Com:  0.240D+00 0.760D+00
 Coeff-En:   0.382D+00 0.618D+00
 Coeff:      0.261D+00 0.739D+00
 Gap=     0.303 Goal=   None    Shift=    0.000
 RMSDP=3.51D-03 MaxDP=4.23D-02 DE=-1.86D-02 OVMax= 1.41D-01

 Cycle   3  Pass 0  IDiag  1:
 E= -76.3326785910182     Delta-E=       -0.056939243633 Rises=F Damp=F
 DIIS: error= 2.13D-03 at cycle   3 NSaved=   3.
 NSaved= 3 IEnMin= 3 EnMin= -76.3326785910182     IErMin= 3 ErrMin= 2.13D-03
 ErrMax= 2.13D-03  0.00D+00 EMaxC= 1.00D-01 BMatC= 1.76D-04 BMatP= 1.02D-02
 IDIUse=3 WtCom= 9.79D-01 WtEn= 2.13D-02
 Coeff-Com:  0.273D-01-0.509D-01 0.102D+01
 Coeff-En:   0.000D+00 0.000D+00 0.100D+01
 Coeff:      0.267D-01-0.498D-01 0.102D+01
 Gap=     0.316 Goal=   None    Shift=    0.000
 RMSDP=3.69D-04 MaxDP=3.80D-03 DE=-5.69D-02 OVMax= 3.04D-03

 Cycle   4  Pass 0  IDiag  1:
 E= -76.3328027278481     Delta-E=       -0.000124136830 Rises=F Damp=F
 DIIS: error= 2.55D-04 at cycle   4 NSaved=   4.
 NSaved= 4 IEnMin= 4 EnMin= -76.3328027278481     IErMin= 4 ErrMin= 2.55D-04
 ErrMax= 2.55D-04  0.00D+00 EMaxC= 1.00D-01 BMatC= 1.57D-06 BMatP= 1.76D-04
 IDIUse=3 WtCom= 9.97D-01 WtEn= 2.55D-03
 Coeff-Com:  0.620D-02-0.209D-01 0.253D+00 0.762D+00
 Coeff-En:   0.000D+00 0.000D+00 0.000D+00 0.100D+01
 Coeff:      0.619D-02-0.209D-01 0.252D+00 0.762D+00
 Gap=     0.316 Goal=   None    Shift=    0.000
 RMSDP=2.65D-05 MaxDP=1.84D-04 DE=-1.24D-04 OVMax= 2.34D-04

 Cycle   5  Pass 0  IDiag  1:
 E= -76.3328037439059     Delta-E=       -0.000001016058 Rises=F Damp=F
 DIIS: error= 6.21D-05 at cycle   5 NSaved=   5.
 NSaved= 5 IEnMin= 5 EnMin= -76.3328037439059     IErMin= 5 ErrMin= 6.21D-05
 ErrMax= 6.21D-05  0.00D+00 EMaxC= 1.00D-01 BMatC= 1.12D-07 BMatP= 1.57D-06
 IDIUse=1 WtCom= 1.00D+00 WtEn= 0.00D+00
 Coeff-Com:  0.101D-02-0.151D-02 0.777D-02 0.584D-01 0.934D+00
 Coeff:      0.101D-02-0.151D-02 0.777D-02 0.584D-01 0.934D+00
 Gap=     0.316 Goal=   None    Shift=    0.000
 RMSDP=9.70D-06 MaxDP=7.10D-05 DE=-1.02D-06 OVMax= 1.06D-04

 Initial convergence to 1.0D-05 achieved.  Increase integral accuracy.
 Cycle   6  Pass 1  IDiag  1:
 E= -76.3328032604736     Delta-E=        0.000000483432 Rises=F Damp=F
 DIIS: error= 2.05D-06 at cycle   1 NSaved=   1.
 NSaved= 1 IEnMin= 1 EnMin= -76.3328032604736     IErMin= 1 ErrMin= 2.05D-06
 ErrMax= 2.05D-06  0.00D+00 EMaxC= 1.00D-01 BMatC= 1.09D-10 BMatP= 1.09D-10
 IDIUse=1 WtCom= 1.00D+00 WtEn= 0.00D+00
 Coeff-Com:  0.100D+01
 Coeff:      0.100D+01
 Gap=     0.316 Goal=   None    Shift=    0.000
 RMSDP=9.70D-06 MaxDP=7.10D-05 DE= 4.83D-07 OVMax= 5.58D-06

 Cycle   7  Pass 1  IDiag  1:
 E= -76.3328032604350     Delta-E=        0.000000000039 Rises=F Damp=F
 DIIS: error= 1.97D-06 at cycle   2 NSaved=   2.
 NSaved= 2 IEnMin= 1 EnMin= -76.3328032604736     IErMin= 2 ErrMin= 1.97D-06
 ErrMax= 1.97D-06  0.00D+00 EMaxC= 1.00D-01 BMatC= 1.78D-10 BMatP= 1.09D-10
 IDIUse=1 WtCom= 1.00D+00 WtEn= 0.00D+00
 Coeff-Com:  0.565D+00 0.435D+00
 Coeff:      0.565D+00 0.435D+00
 Gap=     0.316 Goal=   None    Shift=    0.000
 RMSDP=4.04D-07 MaxDP=3.29D-06 DE= 3.86D-11 OVMax= 3.89D-06

 Cycle   8  Pass 1  IDiag  1:
 E= -76.3328032605631     Delta-E=       -0.000000000128 Rises=F Damp=F
 DIIS: error= 3.93D-07 at cycle   3 NSaved=   3.
 NSaved= 3 IEnMin= 3 EnMin= -76.3328032605631     IErMin= 3 ErrMin= 3.93D-07
 ErrMax= 3.93D-07  0.00D+00 EMaxC= 1.00D-01 BMatC= 3.45D-12 BMatP= 1.09D-10
 IDIUse=1 WtCom= 1.00D+00 WtEn= 0.00D+00
 Coeff-Com:  0.123D+00 0.167D+00 0.711D+00
 Coeff:      0.123D+00 0.167D+00 0.711D+00
 Gap=     0.316 Goal=   None    Shift=    0.000
 RMSDP=5.83D-08 MaxDP=4.62D-07 DE=-1.28D-10 OVMax= 6.74D-07

 Cycle   9  Pass 1  IDiag  1:
 E= -76.3328032605656     Delta-E=       -0.000000000002 Rises=F Damp=F
 DIIS: error= 2.72D-08 at cycle   4 NSaved=   4.
 NSaved= 4 IEnMin= 4 EnMin= -76.3328032605656     IErMin= 4 ErrMin= 2.72D-08
 ErrMax= 2.72D-08  0.00D+00 EMaxC= 1.00D-01 BMatC= 2.55D-14 BMatP= 3.45D-12
 IDIUse=1 WtCom= 1.00D+00 WtEn= 0.00D+00
 Coeff-Com: -0.109D-01 0.215D-02 0.883D-01 0.920D+00
 Coeff:     -0.109D-01 0.215D-02 0.883D-01 0.920D+00
 Gap=     0.316 Goal=   None    Shift=    0.000
 RMSDP=7.45D-09 MaxDP=5.88D-08 DE=-2.47D-12 OVMax= 8.96D-08

 SCF Done:  E(RB3LYP) =  -76.3328032606     A.U. after    9 cycles
            NFock=  9  Conv=0.74D-08     -V/T= 2.0074
 KE= 7.577376615770D+01 PE=-1.979874932093D+02 EE= 3.711908475842D+01
 Leave Link  502 at Tue Sep  8 19:58:37 2020, MaxMem=    65536000 cpu:               2.1 elap:               1.1
 (Enter /home/public/wbh/soft/g16/l601.exe)
 Copying SCF densities to generalized density rwf, IOpCl= 0 IROHF=0.

 **********************************************************************

            Population analysis using the SCF Density.

 **********************************************************************

 Alpha  occ. eigenvalues --  -19.13886  -0.98630  -0.44071  -0.42313  -0.29715
 Alpha virt. eigenvalues --    0.01911   0.10974   0.48602   0.60225   0.91007
 Alpha virt. eigenvalues --    0.92165   1.02287   1.06848   1.23611   1.36104
 Alpha virt. eigenvalues --    1.46663   1.83895   2.16079   2.28562   2.85257
 Alpha virt. eigenvalues --    2.91900   3.00029   3.46531   3.79619
          Condensed to atoms (all electrons):
               1          2          3
     1  O    7.740878   0.260433   0.277813
     2  H    0.260433   0.644556  -0.051643
     3  H    0.277813  -0.051643   0.641360
 Mulliken charges:
               1
     1  O   -0.279124
     2  H    0.146653
     3  H    0.132470
 Sum of Mulliken charges =   0.00000
 Mulliken charges with hydrogens summed into heavy atoms:
               1
     1  O    0.000000
 Electronic spatial extent (au):  <R**2>=            195.2475
 Charge=              0.0000 electrons
 Dipole moment (field-independent basis, Debye):
    X=              1.6713    Y=             -1.6005    Z=             -0.3283  Tot=              2.3372
 Quadrupole moment (field-independent basis, Debye-Ang):
   XX=              1.3327   YY=             -5.5473   ZZ=             -7.3001
   XY=             -3.6118   XZ=              0.1651   YZ=             -1.7085
 Traceless Quadrupole moment (field-independent basis, Debye-Ang):
   XX=              5.1709   YY=             -1.7090   ZZ=             -3.4619
   XY=             -3.6118   XZ=              0.1651   YZ=             -1.7085
 Octapole moment (field-independent basis, Debye-Ang**2):
  XXX=            -11.9163  YYY=             -1.2635  ZZZ=            -18.6590  XYY=            -11.2112
  XXY=             -8.3303  XXZ=             -3.1741  XZZ=            -14.5707  YZZ=             -2.0081
  YYZ=             -4.7582  XYZ=             -3.8032
 Hexadecapole moment (field-independent basis, Debye-Ang**3):
 XXXX=            -80.2370 YYYY=             -6.1900 ZZZZ=            -38.2360 XXXY=            -19.3504
 XXXZ=            -23.5306 YYYX=             -2.5671 YYYZ=             -1.1168 ZZZX=            -37.5453
 ZZZY=             -2.2105 XXYY=            -25.0889 XXZZ=            -35.9819 YYZZ=             -6.1832
 XXYZ=             -8.5305 YYXZ=             -9.3903 ZZXY=             -4.3344
 N-N= 8.761839032569D+00 E-N=-1.979874932489D+02  KE= 7.577376615770D+01
 No NMR shielding tensors so no spin-rotation constants.
 Leave Link  601 at Tue Sep  8 19:58:37 2020, MaxMem=    65536000 cpu:               0.3 elap:               0.2
 (Enter /home/public/wbh/soft/g16/l701.exe)
 ... and contract with generalized density number  0.
 Compute integral first derivatives.
   1 Symmetry operations used in ECPInt.
 ECPInt:  NShTT=      78 NPrTT=     272 LenC2=      79 LenP2D=     271.
 LDataN:  DoStor=T MaxTD1= 5 Len=  102
 Leave Link  701 at Tue Sep  8 19:58:37 2020, MaxMem=    65536000 cpu:               0.2 elap:               0.1
 (Enter /home/public/wbh/soft/g16/l702.exe)
 L702 exits ... SP integral derivatives will be done elsewhere.
 Leave Link  702 at Tue Sep  8 19:58:37 2020, MaxMem=    65536000 cpu:               0.0 elap:               0.0
 (Enter /home/public/wbh/soft/g16/l703.exe)
 Integral derivatives from FoFJK, PRISM(SPDF).
 Compute integral first derivatives, UseDBF=F ICtDFT=           0.
 Calling FoFJK, ICntrl=      2127 FMM=F ISym2X=0 I1Cent= 0 IOpClX= 0 NMat=1 NMatS=1 NMatT=0.
 FoFJK:  IHMeth= 1 ICntrl=    2127 DoSepK=F KAlg= 0 I1Cent=           0 FoldK=F
 IRaf=         0 NMat=       1 IRICut=       1 DoRegI=T DoRafI=F ISym2E= 0 IDoP0=0 IntGTp=1.
 FoFCou: FMM=F IPFlag=           0 FMFlag=      100000 FMFlg1=         800
         NFxFlg=           0 DoJE=F BraDBF=F KetDBF=F FulRan=T
         wScrn=  0.000000 ICntrl=      2127 IOpCl=  0 I1Cent=           0 NGrid=           0
         NMat0=    1 NMatS0=      1 NMatT0=    0 NMatD0=    1 NMtDS0=    0 NMtDT0=    0
 Symmetry not used in FoFCou.
 Leave Link  703 at Tue Sep  8 19:58:38 2020, MaxMem=    65536000 cpu:               0.9 elap:               0.5
 (Enter /home/public/wbh/soft/g16/l716.exe)
 Dipole        = 6.57530882D-01-6.29687429D-01-1.29143870D-01
 -------------------------------------------------------------------
 Center     Atomic                   Forces (Hartrees/Bohr)
 Number     Number              X              Y              Z
 -------------------------------------------------------------------
      1        8           0.081489833   -0.036761273   -0.027730175
      2        1          -0.039724780    0.049117884    0.004656206
      3        1          -0.041765053   -0.012356611    0.023073970
 -------------------------------------------------------------------
 Cartesian Forces:  Max     0.081489833 RMS     0.041099696
 Z-matrix is all fixed cartesians, so copy forces.
 Force constants in Cartesian coordinates: 
                1             2             3             4             5 
      1  0.389231D+00
      2 -0.187758D+00  0.504983D+00
      3 -0.128995D+00 -0.554889D-01  0.761862D-01
      4 -0.326380D+00  0.437068D-01  0.140471D+00  0.326765D+00
      5  0.804010D-01 -0.376038D-01 -0.269808D-01 -0.436487D-01  0.431483D-01
      6  0.130048D+00 -0.979219D-02 -0.581365D-01 -0.140668D+00  0.819006D-02
      7 -0.628516D-01  0.144051D+00 -0.114760D-01 -0.385145D-03 -0.367523D-01
      8  0.107356D+00 -0.467379D+00  0.824696D-01 -0.581037D-04 -0.554452D-02
      9 -0.105306D-02  0.652811D-01 -0.180497D-01  0.196917D-03  0.187907D-01
                6             7             8             9 
      6  0.635662D-01
      7  0.106199D-01  0.632367D-01
      8  0.160213D-02 -0.107298D+00  0.472923D+00
      9 -0.542973D-02  0.856140D-03 -0.840718D-01  0.234795D-01
 Leave Link  716 at Tue Sep  8 19:58:38 2020, MaxMem=    65536000 cpu:               0.0 elap:               0.0
 (Enter /home/public/wbh/soft/g16/l103.exe)

 GradGradGradGradGradGradGradGradGradGradGradGradGradGradGradGradGradGrad
 Berny optimization.
 Search for a local minimum.
 Step number   1 out of a maximum of    2
 All quantities printed in internal units (Hartrees-Bohrs-Radians)
 Second derivative matrix not updated -- first step.
 The second derivative matrix:
                          X1        Y1        Z1        X2        Y2
           X1           0.38923
           Y1          -0.18776   0.50498
           Z1          -0.12899  -0.05549   0.07619
           X2          -0.32638   0.04371   0.14047   0.32676
           Y2           0.08040  -0.03760  -0.02698  -0.04365   0.04315
           Z2           0.13005  -0.00979  -0.05814  -0.14067   0.00819
           X3          -0.06285   0.14405  -0.01148  -0.00039  -0.03675
           Y3           0.10736  -0.46738   0.08247  -0.00006  -0.00554
           Z3          -0.00105   0.06528  -0.01805   0.00020   0.01879
                          Z2        X3        Y3        Z3
           Z2           0.06357
           X3           0.01062   0.06324
           Y3           0.00160  -0.10730   0.47292
           Z3          -0.00543   0.00086  -0.08407   0.02348
 ITU=  0
     Eigenvalues ---    0.10719   0.62018   0.89543
 Quadratic step=6.654D-01 exceeds max=3.000D-01 adjusted using Lamda=-1.412D-01.
 Angle between NR and scaled steps=   9.26 degrees.
 Angle between quadratic step and forces=  39.68 degrees.
 Linear search not attempted -- first point.
 B after Tr=     0.049442    0.000026   -0.023168
         Rot=    0.999992    0.001619    0.000982    0.003457 Ang=   0.45 deg.
 Variable       Old X    -DE/DX   Delta X   Delta X   Delta X     New X
                                 (Linear)    (Quad)   (Total)
    X1        3.68051   0.08149   0.00000   0.07078   0.11790   3.79841
    Y1        0.19689  -0.03676   0.00000  -0.04129  -0.06170   0.13519
    Z1        1.71376  -0.02773   0.00000  -0.02143  -0.03770   1.67605
    X2        5.49648  -0.03972   0.00000  -0.02841   0.02012   5.51660
    Y2       -0.04786   0.04912   0.00000   0.18880   0.15393   0.10608
    Z2        0.93262   0.00466   0.00000  -0.04032  -0.05315   0.87947
    X3        4.10506  -0.04177   0.00000  -0.17179  -0.13802   3.96704
    Y3       -1.58040  -0.01236   0.00000  -0.07202  -0.09224  -1.67264
    Z3        2.01972   0.02307   0.00000   0.10093   0.09085   2.11057
         Item               Value     Threshold  Converged?
 Maximum Force            0.081490     0.000450     NO 
 RMS     Force            0.041100     0.000300     NO 
 Maximum Displacement     0.153935     0.001800     NO 
 RMS     Displacement     0.095375     0.001200     NO 
 Predicted change in Energy=-2.060715D-02
 GradGradGradGradGradGradGradGradGradGradGradGradGradGradGradGradGradGrad

 Leave Link  103 at Tue Sep  8 19:58:38 2020, MaxMem=    65536000 cpu:               0.0 elap:               0.0
 (Enter /home/public/wbh/soft/g16/l9999.exe)
 1\1\GINC-LOCALHOST\Force\RB3LYP\def2SVP\H2O1\PUBLIC\08-Sep-2020\0\\#p 
 b3lyp def2svp force units(au) nosymm\\generate for AIMD to electronic 
 calculate potential and force.\\0,1\O,1.9476400586,0.1041883093,0.9068
 80144\H,2.9086120621,-0.025325209,0.4935220813\H,2.1723060007,-0.83631
 15054,1.0687882618\\Version=EM64L-G16RevB.01\HF=-76.3328033\RMSD=7.448
 e-09\RMSF=4.110e-02\Dipole=0.6575309,-0.6296874,-0.1291439\Quadrupole=
 3.8444391,-1.2706245,-2.5738146,-2.6852857,0.1227759,-1.2702583\PG=CS 
 [SG(H2O1)]\\@


 THE RARE EARTHS PERPLEX US IN OUR RESEARCHES,
 BAFFLE US IN OUR SPECULATIONS, AND HAUNT US IN OUR
 VERY DREAMS.  THEY STRETCH LIKE AN UNKNOWN BEFORE US,
 MOCKING, MYSTIFYING, AND MURMURING STRANGE REVELATIONS
 AND POSSIBILITIES.  -- SIR WILLIAM CROOKE, 1832-1919
 Job cpu time:       0 days  0 hours  0 minutes  5.1 seconds.
 Elapsed time:       0 days  0 hours  0 minutes  2.6 seconds.
 File lengths (MBytes):  RWF=      6 Int=      0 D2E=      0 Chk=      1 Scr=      1
 Normal termination of Gaussian 16 at Tue Sep  8 19:58:38 2020.
