 Entering Gaussian System, Link 0=g16
 Input=itraj_3/ground.gjf
 Output=itraj_3/ground.log
 Initial command:
 /root/wbh/soft/g16/l1.exe "/root/wbh/soft/g16/scratch/Gau-33936.inp" -scrdir="/root/wbh/soft/g16/scratch/"
 Entering Link 1 = /root/wbh/soft/g16/l1.exe PID=     33937.
  
 Copyright (c) 1988-2017, Gaussian, Inc.  All Rights Reserved.
  
 This is part of the Gaussian(R) 16 program.  It is based on
 the Gaussian(R) 09 system (copyright 2009, Gaussian, Inc.),
 the Gaussian(R) 03 system (copyright 2003, Gaussian, Inc.),
 the Gaussian(R) 98 system (copyright 1998, Gaussian, Inc.),
 the Gaussian(R) 94 system (copyright 1995, Gaussian, Inc.),
 the Gaussian 92(TM) system (copyright 1992, Gaussian, Inc.),
 the Gaussian 90(TM) system (copyright 1990, Gaussian, Inc.),
 the Gaussian 88(TM) system (copyright 1988, Gaussian, Inc.),
 the Gaussian 86(TM) system (copyright 1986, Carnegie Mellon
 University), and the Gaussian 82(TM) system (copyright 1983,
 Carnegie Mellon University). Gaussian is a federally registered
 trademark of Gaussian, Inc.
  
 This software contains proprietary and confidential information,
 including trade secrets, belonging to Gaussian, Inc.
  
 This software is provided under written license and may be
 used, copied, transmitted, or stored only in accord with that
 written license.
  
 The following legend is applicable only to US Government
 contracts under FAR:
  
                    RESTRICTED RIGHTS LEGEND
  
 Use, reproduction and disclosure by the US Government is
 subject to restrictions as set forth in subparagraphs (a)
 and (c) of the Commercial Computer Software - Restricted
 Rights clause in FAR 52.227-19.
  
 Gaussian, Inc.
 340 Quinnipiac St., Bldg. 40, Wallingford CT 06492
  
  
 ---------------------------------------------------------------
 Warning -- This program may not be used in any manner that
 competes with the business of Gaussian, Inc. or will provide
 assistance to any competitor of Gaussian, Inc.  The licensee
 of this program is prohibited from giving any competitor of
 Gaussian, Inc. access to this program.  By using this program,
 the user acknowledges that Gaussian, Inc. is engaged in the
 business of creating and licensing software in the field of
 computational chemistry and represents and warrants to the
 licensee that it is not a competitor of Gaussian, Inc. and that
 it will not use this program in any manner prohibited above.
 ---------------------------------------------------------------
  

 Cite this work as:
 Gaussian 16, Revision B.01,
 M. J. Frisch, G. W. Trucks, H. B. Schlegel, G. E. Scuseria, 
 M. A. Robb, J. R. Cheeseman, G. Scalmani, V. Barone, 
 G. A. Petersson, H. Nakatsuji, X. Li, M. Caricato, A. V. Marenich, 
 J. Bloino, B. G. Janesko, R. Gomperts, B. Mennucci, H. P. Hratchian, 
 J. V. Ortiz, A. F. Izmaylov, J. L. Sonnenberg, D. Williams-Young, 
 F. Ding, F. Lipparini, F. Egidi, J. Goings, B. Peng, A. Petrone, 
 T. Henderson, D. Ranasinghe, V. G. Zakrzewski, J. Gao, N. Rega, 
 G. Zheng, W. Liang, M. Hada, M. Ehara, K. Toyota, R. Fukuda, 
 J. Hasegawa, M. Ishida, T. Nakajima, Y. Honda, O. Kitao, H. Nakai, 
 T. Vreven, K. Throssell, J. A. Montgomery, Jr., J. E. Peralta, 
 F. Ogliaro, M. J. Bearpark, J. J. Heyd, E. N. Brothers, K. N. Kudin, 
 V. N. Staroverov, T. A. Keith, R. Kobayashi, J. Normand, 
 K. Raghavachari, A. P. Rendell, J. C. Burant, S. S. Iyengar, 
 J. Tomasi, M. Cossi, J. M. Millam, M. Klene, C. Adamo, R. Cammi, 
 J. W. Ochterski, R. L. Martin, K. Morokuma, O. Farkas, 
 J. B. Foresman, and D. J. Fox, Gaussian, Inc., Wallingford CT, 2016.
 
 ******************************************
 Gaussian 16:  EM64L-G16RevB.01 20-Dec-2017
                27-Aug-2020 
 ******************************************
  %mem=500MB
  %nproc=2
 Will use up to    2 processors via shared memory.
 --------------------------------
 #p b3lyp def2svp force units(au)
 --------------------------------
 1/10=7,20=1,30=1,38=1/1,3;
 2/12=2,17=6,18=5,40=1/2;
 3/5=43,7=101,11=2,25=1,30=1,71=1,74=-5/1,2,3;
 4//1;
 5/5=2,38=5/2;
 6/7=2,8=2,9=2,10=2,28=1/1;
 7/29=1/1,2,3,16;
 1/10=7,30=1/3;
 99//99;
 Leave Link    1 at Thu Aug 27 14:31:31 2020, MaxMem=    65536000 cpu:               0.0 elap:               0.0
 (Enter /root/wbh/soft/g16/l101.exe)
 --------------------------------------------------------------
 generate for AIMD to electronic calculate potential and force.
 --------------------------------------------------------------
 Symbolic Z-matrix:
 Charge =  0 Multiplicity = 1
 O                     3.6805    0.19688   1.71375 
 H                     5.49645  -0.04782   0.93256 
 H                     4.10515  -1.58036   2.01986 
 
 ITRead=  0  0  0
 MicOpt= -1 -1 -1
 NAtoms=      3 NQM=        3 NQMF=       0 NMMI=      0 NMMIF=      0
                NMic=       0 NMicF=      0.
                    Isotopes and Nuclear Properties:
 (Nuclear quadrupole moments (NQMom) in fm**2, nuclear magnetic moments (NMagM)
  in nuclear magnetons)

  Atom         1           2           3
 IAtWgt=          16           1           1
 AtmWgt=  15.9949146   1.0078250   1.0078250
 NucSpn=           0           1           1
 AtZEff=   0.0000000   0.0000000   0.0000000
 NQMom=    0.0000000   0.0000000   0.0000000
 NMagM=    0.0000000   2.7928460   2.7928460
 AtZNuc=   8.0000000   1.0000000   1.0000000
 Leave Link  101 at Thu Aug 27 14:31:31 2020, MaxMem=    65536000 cpu:               0.1 elap:               0.0
 (Enter /root/wbh/soft/g16/l103.exe)

 GradGradGradGradGradGradGradGradGradGradGradGradGradGradGradGradGradGrad
 Berny optimization.
 Initialization pass.
 Trust Radius=3.00D-01 FncErr=1.00D-07 GrdErr=1.00D-07 EigMax=2.50D+02 EigMin=1.00D-04
 Number of steps in this run=      2 maximum allowed number of steps=      2.
 GradGradGradGradGradGradGradGradGradGradGradGradGradGradGradGradGradGrad

 Leave Link  103 at Thu Aug 27 14:31:31 2020, MaxMem=    65536000 cpu:               0.0 elap:               0.0
 (Enter /root/wbh/soft/g16/l202.exe)
                          Input orientation:                          
 ---------------------------------------------------------------------
 Center     Atomic      Atomic             Coordinates (Angstroms)
 Number     Number       Type             X           Y           Z
 ---------------------------------------------------------------------
      1          8           0        1.947638    0.104186    0.906877
      2          1           0        2.908597   -0.025306    0.493489
      3          1           0        2.172353   -0.836290    1.068866
 ---------------------------------------------------------------------
                    Distance matrix (angstroms):
                    1          2          3
     1  O    0.000000
     2  H    1.054087   0.000000
     3  H    0.980424   1.237259   0.000000
 Stoichiometry    H2O
 Framework group  CS[SG(H2O)]
 Deg. of freedom     3
 Full point group                 CS      NOp   2
 Largest Abelian subgroup         CS      NOp   2
 Largest concise Abelian subgroup C1      NOp   1
                         Standard orientation:                         
 ---------------------------------------------------------------------
 Center     Atomic      Atomic             Coordinates (Angstroms)
 Number     Number       Type             X           Y           Z
 ---------------------------------------------------------------------
      1          8           0        0.000000    0.161674    0.000000
      2          1           0        0.616891   -0.693046    0.000000
      3          1           0       -0.616891   -0.600348    0.000000
 ---------------------------------------------------------------------
 Rotational constants (GHZ):         665.7955552         427.5343432         260.3518534
 Leave Link  202 at Thu Aug 27 14:31:31 2020, MaxMem=    65536000 cpu:               0.0 elap:               0.0
 (Enter /root/wbh/soft/g16/l301.exe)
 Standard basis: def2SVP (5D, 7F)
 Ernie: Thresh=  0.10000D-02 Tol=  0.10000D-05 Strict=F.
 There are    19 symmetry adapted cartesian basis functions of A'  symmetry.
 There are     6 symmetry adapted cartesian basis functions of A"  symmetry.
 There are    18 symmetry adapted basis functions of A'  symmetry.
 There are     6 symmetry adapted basis functions of A"  symmetry.
    24 basis functions,    39 primitive gaussians,    25 cartesian basis functions
     5 alpha electrons        5 beta electrons
       nuclear repulsion energy         8.7618392749 Hartrees.
 IExCor=  402 DFT=T Ex+Corr=B3LYP ExCW=0 ScaHFX=  0.200000
 ScaDFX=  0.800000  0.720000  1.000000  0.810000 ScalE2=  1.000000  1.000000
 IRadAn=      5 IRanWt=     -1 IRanGd=            0 ICorTp=0 IEmpDi=  4
 NAtoms=    3 NActive=    3 NUniq=    3 SFac= 1.00D+00 NAtFMM=   60 NAOKFM=F Big=F
 Integral buffers will be    131072 words long.
 Raffenetti 2 integral format.
 Two-electron integral symmetry is turned on.
 Leave Link  301 at Thu Aug 27 14:31:31 2020, MaxMem=    65536000 cpu:               0.1 elap:               0.0
 (Enter /root/wbh/soft/g16/l302.exe)
 NPDir=0 NMtPBC=     1 NCelOv=     1 NCel=       1 NClECP=     1 NCelD=      1
         NCelK=      1 NCelE2=     1 NClLst=     1 CellRange=     0.0.
 One-electron integrals computed using PRISM.
 One-electron integral symmetry used in STVInt
   2 Symmetry operations used in ECPInt.
 ECPInt:  NShTT=      78 NPrTT=     272 LenC2=      79 LenP2D=     271.
 LDataN:  DoStor=T MaxTD1= 4 Len=   56
 NBasis=    24 RedAO= T EigKep=  3.97D-02  NBF=    18     6
 NBsUse=    24 1.00D-06 EigRej= -1.00D+00 NBFU=    18     6
 Precomputing XC quadrature grid using
 IXCGrd= 4 IRadAn=           5 IRanWt=          -1 IRanGd=           0 AccXCQ= 0.00D+00.
 Generated NRdTot=       0 NPtTot=           0 NUsed=           0 NTot=          32
 NSgBfM=    25    25    25    25    25 MxSgAt=     3 MxSgA2=     3.
 Leave Link  302 at Thu Aug 27 14:31:31 2020, MaxMem=    65536000 cpu:               0.1 elap:               0.1
 (Enter /root/wbh/soft/g16/l303.exe)
 DipDrv:  MaxL=1.
 Leave Link  303 at Thu Aug 27 14:31:31 2020, MaxMem=    65536000 cpu:               0.0 elap:               0.0
 (Enter /root/wbh/soft/g16/l401.exe)
 ExpMin= 1.22D-01 ExpMax= 2.27D+03 ExpMxC= 3.41D+02 IAcc=3 IRadAn=         5 AccDes= 0.00D+00
 Harris functional with IExCor=  402 and IRadAn=       5 diagonalized for initial guess.
 HarFok:  IExCor=  402 AccDes= 0.00D+00 IRadAn=         5 IDoV= 1 UseB2=F ITyADJ=14
 ICtDFT=  3500011 ScaDFX=  1.000000  1.000000  1.000000  1.000000
 FoFCou: FMM=F IPFlag=           0 FMFlag=      100000 FMFlg1=           0
         NFxFlg=           0 DoJE=T BraDBF=F KetDBF=T FulRan=T
         wScrn=  0.000000 ICntrl=       500 IOpCl=  0 I1Cent=   200000004 NGrid=           0
         NMat0=    1 NMatS0=      1 NMatT0=    0 NMatD0=    1 NMtDS0=    0 NMtDT0=    0
 Petite list used in FoFCou.
 Harris En= -76.3663086573233    
 JPrj=0 DoOrth=F DoCkMO=F.
 Initial guess orbital symmetries:
       Occupied  (A') (A') (A') (A') (A")
       Virtual   (A') (A') (A') (A') (A") (A') (A') (A') (A') (A")
                 (A") (A') (A') (A') (A") (A') (A") (A') (A')
 The electronic state of the initial guess is 1-A'.
 Leave Link  401 at Thu Aug 27 14:31:31 2020, MaxMem=    65536000 cpu:               0.2 elap:               0.1
 (Enter /root/wbh/soft/g16/l502.exe)
 Keep R1 ints in memory in symmetry-blocked form, NReq=1773122.
 FoFCou: FMM=F IPFlag=           0 FMFlag=           0 FMFlg1=           0
         NFxFlg=           0 DoJE=F BraDBF=F KetDBF=F FulRan=T
         wScrn=  0.000000 ICntrl=       600 IOpCl=  0 I1Cent=           0 NGrid=           0
         NMat0=    1 NMatS0=    300 NMatT0=    0 NMatD0=    1 NMtDS0=    0 NMtDT0=    0
 Petite list used in FoFCou.
 Closed shell SCF:
 Using DIIS extrapolation, IDIIS=  1040.
 NGot=    65536000 LenX=    65508776 LenY=    65507710
 Requested convergence on RMS density matrix=1.00D-08 within 128 cycles.
 Requested convergence on MAX density matrix=1.00D-06.
 Requested convergence on             energy=1.00D-06.
 No special actions if energy rises.
 Integral accuracy reduced to 1.0D-05 until final iterations.

 Cycle   1  Pass 0  IDiag  1:
 E= -76.2571825789524    
 DIIS: error= 5.31D-02 at cycle   1 NSaved=   1.
 NSaved= 1 IEnMin= 1 EnMin= -76.2571825789524     IErMin= 1 ErrMin= 5.31D-02
 ErrMax= 5.31D-02  0.00D+00 EMaxC= 1.00D-01 BMatC= 9.56D-02 BMatP= 9.56D-02
 IDIUse=3 WtCom= 4.69D-01 WtEn= 5.31D-01
 Coeff-Com:  0.100D+01
 Coeff-En:   0.100D+01
 Coeff:      0.100D+01
 Gap=     0.169 Goal=   None    Shift=    0.000
 GapD=    0.169 DampG=1.000 DampE=0.500 DampFc=0.5000 IDamp=-1.
 Damping current iteration by 5.00D-01
 RMSDP=2.41D-02 MaxDP=2.10D-01              OVMax= 2.46D-01

 Cycle   2  Pass 0  IDiag  1:
 E= -76.2757431245146     Delta-E=       -0.018560545562 Rises=F Damp=T
 DIIS: error= 1.49D-02 at cycle   2 NSaved=   2.
 NSaved= 2 IEnMin= 2 EnMin= -76.2757431245146     IErMin= 2 ErrMin= 1.49D-02
 ErrMax= 1.49D-02  0.00D+00 EMaxC= 1.00D-01 BMatC= 1.02D-02 BMatP= 9.56D-02
 IDIUse=3 WtCom= 8.51D-01 WtEn= 1.49D-01
 Coeff-Com:  0.240D+00 0.760D+00
 Coeff-En:   0.382D+00 0.618D+00
 Coeff:      0.261D+00 0.739D+00
 Gap=     0.303 Goal=   None    Shift=    0.000
 RMSDP=3.51D-03 MaxDP=4.23D-02 DE=-1.86D-02 OVMax= 1.41D-01

 Cycle   3  Pass 0  IDiag  1:
 E= -76.3326818050563     Delta-E=       -0.056938680542 Rises=F Damp=F
 DIIS: error= 2.13D-03 at cycle   3 NSaved=   3.
 NSaved= 3 IEnMin= 3 EnMin= -76.3326818050563     IErMin= 3 ErrMin= 2.13D-03
 ErrMax= 2.13D-03  0.00D+00 EMaxC= 1.00D-01 BMatC= 1.76D-04 BMatP= 1.02D-02
 IDIUse=3 WtCom= 9.79D-01 WtEn= 2.13D-02
 Coeff-Com:  0.273D-01-0.509D-01 0.102D+01
 Coeff-En:   0.000D+00 0.000D+00 0.100D+01
 Coeff:      0.267D-01-0.498D-01 0.102D+01
 Gap=     0.316 Goal=   None    Shift=    0.000
 RMSDP=3.69D-04 MaxDP=3.80D-03 DE=-5.69D-02 OVMax= 3.02D-03

 Cycle   4  Pass 0  IDiag  1:
 E= -76.3328059418012     Delta-E=       -0.000124136745 Rises=F Damp=F
 DIIS: error= 2.55D-04 at cycle   4 NSaved=   4.
 NSaved= 4 IEnMin= 4 EnMin= -76.3328059418012     IErMin= 4 ErrMin= 2.55D-04
 ErrMax= 2.55D-04  0.00D+00 EMaxC= 1.00D-01 BMatC= 1.57D-06 BMatP= 1.76D-04
 IDIUse=3 WtCom= 9.97D-01 WtEn= 2.55D-03
 Coeff-Com:  0.620D-02-0.209D-01 0.253D+00 0.762D+00
 Coeff-En:   0.000D+00 0.000D+00 0.000D+00 0.100D+01
 Coeff:      0.619D-02-0.209D-01 0.252D+00 0.762D+00
 Gap=     0.316 Goal=   None    Shift=    0.000
 RMSDP=2.65D-05 MaxDP=2.08D-04 DE=-1.24D-04 OVMax= 2.33D-04

 Cycle   5  Pass 0  IDiag  1:
 E= -76.3328069578384     Delta-E=       -0.000001016037 Rises=F Damp=F
 DIIS: error= 6.21D-05 at cycle   5 NSaved=   5.
 NSaved= 5 IEnMin= 5 EnMin= -76.3328069578384     IErMin= 5 ErrMin= 6.21D-05
 ErrMax= 6.21D-05  0.00D+00 EMaxC= 1.00D-01 BMatC= 1.12D-07 BMatP= 1.57D-06
 IDIUse=1 WtCom= 1.00D+00 WtEn= 0.00D+00
 Coeff-Com:  0.101D-02-0.151D-02 0.777D-02 0.584D-01 0.934D+00
 Coeff:      0.101D-02-0.151D-02 0.777D-02 0.584D-01 0.934D+00
 Gap=     0.316 Goal=   None    Shift=    0.000
 RMSDP=9.70D-06 MaxDP=7.10D-05 DE=-1.02D-06 OVMax= 1.06D-04

 Initial convergence to 1.0D-05 achieved.  Increase integral accuracy.
 Cycle   6  Pass 1  IDiag  1:
 E= -76.3328051083604     Delta-E=        0.000001849478 Rises=F Damp=F
 DIIS: error= 1.89D-06 at cycle   1 NSaved=   1.
 NSaved= 1 IEnMin= 1 EnMin= -76.3328051083604     IErMin= 1 ErrMin= 1.89D-06
 ErrMax= 1.89D-06  0.00D+00 EMaxC= 1.00D-01 BMatC= 1.01D-10 BMatP= 1.01D-10
 IDIUse=1 WtCom= 1.00D+00 WtEn= 0.00D+00
 Coeff-Com:  0.100D+01
 Coeff:      0.100D+01
 Gap=     0.316 Goal=   None    Shift=    0.000
 RMSDP=9.70D-06 MaxDP=7.10D-05 DE= 1.85D-06 OVMax= 5.73D-06

 Cycle   7  Pass 1  IDiag  1:
 E= -76.3328051083270     Delta-E=        0.000000000033 Rises=F Damp=F
 DIIS: error= 1.88D-06 at cycle   2 NSaved=   2.
 NSaved= 2 IEnMin= 1 EnMin= -76.3328051083604     IErMin= 2 ErrMin= 1.88D-06
 ErrMax= 1.88D-06  0.00D+00 EMaxC= 1.00D-01 BMatC= 1.62D-10 BMatP= 1.01D-10
 IDIUse=1 WtCom= 1.00D+00 WtEn= 0.00D+00
 Coeff-Com:  0.562D+00 0.438D+00
 Coeff:      0.562D+00 0.438D+00
 Gap=     0.316 Goal=   None    Shift=    0.000
 RMSDP=3.86D-07 MaxDP=3.14D-06 DE= 3.34D-11 OVMax= 3.71D-06

 Cycle   8  Pass 1  IDiag  1:
 E= -76.3328051084427     Delta-E=       -0.000000000116 Rises=F Damp=F
 DIIS: error= 3.95D-07 at cycle   3 NSaved=   3.
 NSaved= 3 IEnMin= 3 EnMin= -76.3328051084427     IErMin= 3 ErrMin= 3.95D-07
 ErrMax= 3.95D-07  0.00D+00 EMaxC= 1.00D-01 BMatC= 3.48D-12 BMatP= 1.01D-10
 IDIUse=1 WtCom= 1.00D+00 WtEn= 0.00D+00
 Coeff-Com:  0.122D+00 0.171D+00 0.707D+00
 Coeff:      0.122D+00 0.171D+00 0.707D+00
 Gap=     0.316 Goal=   None    Shift=    0.000
 RMSDP=5.87D-08 MaxDP=4.60D-07 DE=-1.16D-10 OVMax= 6.83D-07

 Cycle   9  Pass 1  IDiag  1:
 E= -76.3328051084454     Delta-E=       -0.000000000003 Rises=F Damp=F
 DIIS: error= 3.05D-08 at cycle   4 NSaved=   4.
 NSaved= 4 IEnMin= 4 EnMin= -76.3328051084454     IErMin= 4 ErrMin= 3.05D-08
 ErrMax= 3.05D-08  0.00D+00 EMaxC= 1.00D-01 BMatC= 2.62D-14 BMatP= 3.48D-12
 IDIUse=1 WtCom= 1.00D+00 WtEn= 0.00D+00
 Coeff-Com: -0.125D-01 0.698D-03 0.874D-01 0.924D+00
 Coeff:     -0.125D-01 0.698D-03 0.874D-01 0.924D+00
 Gap=     0.316 Goal=   None    Shift=    0.000
 RMSDP=7.87D-09 MaxDP=6.18D-08 DE=-2.77D-12 OVMax= 1.01D-07

 SCF Done:  E(RB3LYP) =  -76.3328051084     A.U. after    9 cycles
            NFock=  9  Conv=0.79D-08     -V/T= 2.0074
 KE= 7.577376440280D+01 PE=-1.979874980539D+02 EE= 3.711908926782D+01
 Leave Link  502 at Thu Aug 27 14:31:32 2020, MaxMem=    65536000 cpu:               0.6 elap:               0.3
 (Enter /root/wbh/soft/g16/l601.exe)
 Copying SCF densities to generalized density rwf, IOpCl= 0 IROHF=0.

 **********************************************************************

            Population analysis using the SCF Density.

 **********************************************************************

 Orbital symmetries:
       Occupied  (A') (A') (A') (A') (A")
       Virtual   (A') (A') (A') (A') (A") (A') (A') (A') (A') (A")
                 (A") (A') (A') (A') (A") (A') (A") (A') (A')
 The electronic state is 1-A'.
 Alpha  occ. eigenvalues --  -19.13886  -0.98630  -0.44071  -0.42313  -0.29715
 Alpha virt. eigenvalues --    0.01911   0.10974   0.48602   0.60225   0.91007
 Alpha virt. eigenvalues --    0.92165   1.02287   1.06849   1.23611   1.36105
 Alpha virt. eigenvalues --    1.46662   1.83895   2.16079   2.28561   2.85257
 Alpha virt. eigenvalues --    2.91901   3.00029   3.46531   3.79619
          Condensed to atoms (all electrons):
               1          2          3
     1  O    7.740875   0.260436   0.277814
     2  H    0.260436   0.644552  -0.051642
     3  H    0.277814  -0.051642   0.641356
 Mulliken charges:
               1
     1  O   -0.279125
     2  H    0.146654
     3  H    0.132471
 Sum of Mulliken charges =   0.00000
 Mulliken charges with hydrogens summed into heavy atoms:
               1
     1  O    0.000000
 Electronic spatial extent (au):  <R**2>=             19.7389
 Charge=              0.0000 electrons
 Dipole moment (field-independent basis, Debye):
    X=             -0.0771    Y=             -2.3359    Z=              0.0000  Tot=              2.3372
 Quadrupole moment (field-independent basis, Debye-Ang):
   XX=             -5.5299   YY=             -5.2202   ZZ=             -7.1012
   XY=             -0.0689   XZ=              0.0000   YZ=              0.0000
 Traceless Quadrupole moment (field-independent basis, Debye-Ang):
   XX=              0.4205   YY=              0.7302   ZZ=             -1.1508
   XY=             -0.0689   XZ=              0.0000   YZ=              0.0000
 Octapole moment (field-independent basis, Debye-Ang**2):
  XXX=             -0.1627  YYY=             -1.4614  ZZZ=              0.0000  XYY=              0.0530
  XXY=             -0.8440  XXZ=              0.0000  XZZ=             -0.0542  YZZ=             -0.2727
  YYZ=              0.0000  XYZ=              0.0000
 Hexadecapole moment (field-independent basis, Debye-Ang**3):
 XXXX=             -6.9912 YYYY=             -7.1306 ZZZZ=             -4.9676 XXXY=              0.1477
 XXXZ=              0.0000 YYYX=              0.0428 YYYZ=              0.0000 ZZZX=              0.0000
 ZZZY=              0.0000 XXYY=             -1.9181 XXZZ=             -2.0852 YYZZ=             -2.1826
 XXYZ=              0.0000 YYXZ=              0.0000 ZZXY=              0.0603
 N-N= 8.761839274882D+00 E-N=-1.979874980067D+02  KE= 7.577376440280D+01
 Symmetry A'   KE= 7.110687597803D+01
 Symmetry A"   KE= 4.666888424767D+00
 No NMR shielding tensors so no spin-rotation constants.
 Leave Link  601 at Thu Aug 27 14:31:32 2020, MaxMem=    65536000 cpu:               0.1 elap:               0.1
 (Enter /root/wbh/soft/g16/l701.exe)
 ... and contract with generalized density number  0.
 Compute integral first derivatives.
   2 Symmetry operations used in ECPInt.
 ECPInt:  NShTT=      78 NPrTT=     272 LenC2=      79 LenP2D=     271.
 LDataN:  DoStor=T MaxTD1= 5 Len=  102
 Leave Link  701 at Thu Aug 27 14:31:32 2020, MaxMem=    65536000 cpu:               0.1 elap:               0.1
 (Enter /root/wbh/soft/g16/l702.exe)
 L702 exits ... SP integral derivatives will be done elsewhere.
 Leave Link  702 at Thu Aug 27 14:31:32 2020, MaxMem=    65536000 cpu:               0.0 elap:               0.0
 (Enter /root/wbh/soft/g16/l703.exe)
 Integral derivatives from FoFJK, PRISM(SPDF).
 Compute integral first derivatives, UseDBF=F ICtDFT=           0.
 Calling FoFJK, ICntrl=      2127 FMM=F ISym2X=1 I1Cent= 0 IOpClX= 0 NMat=1 NMatS=1 NMatT=0.
 FoFJK:  IHMeth= 1 ICntrl=    2127 DoSepK=F KAlg= 0 I1Cent=           0 FoldK=F
 IRaf=         0 NMat=       1 IRICut=       1 DoRegI=T DoRafI=F ISym2E= 1 IDoP0=0 IntGTp=1.
 FoFCou: FMM=F IPFlag=           0 FMFlag=      100000 FMFlg1=         800
         NFxFlg=           0 DoJE=F BraDBF=F KetDBF=F FulRan=T
         wScrn=  0.000000 ICntrl=      2127 IOpCl=  0 I1Cent=           0 NGrid=           0
         NMat0=    1 NMatS0=      1 NMatT0=    0 NMatD0=    1 NMtDS0=    0 NMtDT0=    0
 Petite list used in FoFCou.
 Leave Link  703 at Thu Aug 27 14:31:32 2020, MaxMem=    65536000 cpu:               0.3 elap:               0.1
 (Enter /root/wbh/soft/g16/l716.exe)
 Dipole        =-3.03344747D-02-9.19023397D-01 1.33256055D-16
 ***** Axes restored to original set *****
 -------------------------------------------------------------------
 Center     Atomic                   Forces (Hartrees/Bohr)
 Number     Number              X              Y              Z
 -------------------------------------------------------------------
      1        8           0.081489473   -0.036761601   -0.027729118
      2        1          -0.039727385    0.049114031    0.004654223
      3        1          -0.041762089   -0.012352430    0.023074895
 -------------------------------------------------------------------
 Cartesian Forces:  Max     0.081489473 RMS     0.041098897
 Z-matrix is all fixed cartesians, so copy forces.
 Force constants in Cartesian coordinates: 
                1             2             3             4             5 
      1  0.558036D+00
      2 -0.853812D-01  0.567062D+00
      3  0.231314D+00  0.163031D+00  0.845305D+00
      4 -0.326378D+00  0.437018D-01  0.140482D+00  0.495555D+00
      5  0.803945D-01 -0.376005D-01 -0.269778D-01  0.587466D-01  0.105255D+00
      6  0.130054D+00 -0.978805D-02 -0.581460D-01  0.219627D+00  0.226746D+00
      7 -0.628638D-01  0.144070D+00 -0.114914D-01 -0.382443D-03 -0.367504D-01
      8  0.107377D+00 -0.467351D+00  0.825074D-01 -0.576961D-04 -0.554425D-02
      9 -0.106409D-02  0.653177D-01 -0.180634D-01  0.195562D-03  0.187923D-01
                6             7             8             9 
      6  0.832673D+00
      7  0.106229D-01  0.232040D+00
      8  0.160259D-02 -0.492897D-02  0.535006D+00
      9 -0.543199D-02  0.361172D+00  0.134451D+00  0.792591D+00
 Leave Link  716 at Thu Aug 27 14:31:32 2020, MaxMem=    65536000 cpu:               0.0 elap:               0.0
 (Enter /root/wbh/soft/g16/l103.exe)

 GradGradGradGradGradGradGradGradGradGradGradGradGradGradGradGradGradGrad
 Berny optimization.
 Search for a local minimum.
 Step number   1 out of a maximum of    2
 All quantities printed in internal units (Hartrees-Bohrs-Radians)
 Second derivative matrix not updated -- first step.
 The second derivative matrix:
                          X1        Y1        Z1        X2        Y2
           X1           0.55804
           Y1          -0.08538   0.56706
           Z1           0.23131   0.16303   0.84530
           X2          -0.32638   0.04370   0.14048   0.49555
           Y2           0.08039  -0.03760  -0.02698   0.05875   0.10525
           Z2           0.13005  -0.00979  -0.05815   0.21963   0.22675
           X3          -0.06286   0.14407  -0.01149  -0.00038  -0.03675
           Y3           0.10738  -0.46735   0.08251  -0.00006  -0.00554
           Z3          -0.00106   0.06532  -0.01806   0.00020   0.01879
                          Z2        X3        Y3        Z3
           Z2           0.83267
           X3           0.01062   0.23204
           Y3           0.00160  -0.00493   0.53501
           Z3          -0.00543   0.36117   0.13445   0.79259
 ITU=  0
     Eigenvalues ---    0.10719   0.62019   0.89542
 Quadratic step=6.654D-01 exceeds max=3.000D-01 adjusted using Lamda=-1.412D-01.
 Angle between NR and scaled steps=   9.26 degrees.
 Angle between quadratic step and forces=  39.69 degrees.
 ClnCor:  largest displacement from symmetrization is 3.58D-16 for atom     3.
 Linear search not attempted -- first point.
 ClnCor:  largest displacement from symmetrization is 3.11D-15 for atom     2.
 B after Tr=     0.049444    0.000023   -0.023170
         Rot=    0.999992    0.001619    0.000982    0.003456 Ang=   0.45 deg.
 Variable       Old X    -DE/DX   Delta X   Delta X   Delta X     New X
                                 (Linear)    (Quad)   (Total)
    X1        3.68050   0.08149   0.00000   0.07079   0.11790   3.79841
    Y1        0.19688  -0.03676   0.00000  -0.04129  -0.06170   0.13519
    Z1        1.71375  -0.02773   0.00000  -0.02143  -0.03770   1.67605
    X2        5.49645  -0.03973   0.00000  -0.02842   0.02011   5.51656
    Y2       -0.04782   0.04911   0.00000   0.18880   0.15393   0.10611
    Z2        0.93256   0.00465   0.00000  -0.04034  -0.05317   0.87939
    X3        4.10515  -0.04176   0.00000  -0.17179  -0.13801   3.96714
    Y3       -1.58036  -0.01235   0.00000  -0.07201  -0.09223  -1.67259
    Z3        2.01986   0.02307   0.00000   0.10094   0.09087   2.11073
         Item               Value     Threshold  Converged?
 Maximum Force            0.081489     0.000450     NO 
 RMS     Force            0.041099     0.000300     NO 
 Maximum Displacement     0.153931     0.001800     NO 
 RMS     Displacement     0.095374     0.001200     NO 
 Predicted change in Energy=-2.060599D-02
 GradGradGradGradGradGradGradGradGradGradGradGradGradGradGradGradGradGrad

 Leave Link  103 at Thu Aug 27 14:31:32 2020, MaxMem=    65536000 cpu:               0.0 elap:               0.0
 (Enter /root/wbh/soft/g16/l9999.exe)
 1\1\GINC-LOCALHOST\Force\RB3LYP\def2SVP\H2O1\ROOT\27-Aug-2020\0\\#p b3
 lyp def2svp force units(au)\\generate for AIMD to electronic calculate
  potential and force.\\0,1\O,1.9476380477,0.1041857322,0.9068773394\H,
 2.9085968747,-0.0253060972,0.4934886002\H,2.1723532033,-0.8362896504,1
 .0688664213\\Version=EM64L-G16RevB.01\State=1-A'\HF=-76.3328051\RMSD=7
 .870e-09\RMSF=4.110e-02\Dipole=0.6575562,-0.6296616,-0.1291138\Quadrup
 ole=0.2800338,0.2929746,-0.5730084,-0.2231702,-0.4685862,-0.2218426\PG
 =CS [SG(H2O1)]\\@


 MY GROUP MEETINGS AREN'T VERY STRUCTURED.
     -- PROF. M. S. GORDON, OCT. 5, 1984
 Job cpu time:       0 days  0 hours  0 minutes  1.8 seconds.
 Elapsed time:       0 days  0 hours  0 minutes  0.9 seconds.
 File lengths (MBytes):  RWF=      6 Int=      0 D2E=      0 Chk=      1 Scr=      1
 Normal termination of Gaussian 16 at Thu Aug 27 14:31:32 2020.
