 Entering Gaussian System, Link 0=g16
 Input=excited.gjf
 Output=excited.log
 Initial command:
 /home/public/wbh/soft/g16/l1.exe "/home/public/wbh/soft/g16/scratch/Gau-1063.inp" -scrdir="/home/public/wbh/soft/g16/scratch/"
 Default is to use a total of   2 processors:
                                2 via shared-memory
                                1 via Linda
 Entering Link 1 = /home/public/wbh/soft/g16/l1.exe PID=      1064.
  
 Copyright (c) 1988-2017, Gaussian, Inc.  All Rights Reserved.
  
 This is part of the Gaussian(R) 16 program.  It is based on
 the Gaussian(R) 09 system (copyright 2009, Gaussian, Inc.),
 the Gaussian(R) 03 system (copyright 2003, Gaussian, Inc.),
 the Gaussian(R) 98 system (copyright 1998, Gaussian, Inc.),
 the Gaussian(R) 94 system (copyright 1995, Gaussian, Inc.),
 the Gaussian 92(TM) system (copyright 1992, Gaussian, Inc.),
 the Gaussian 90(TM) system (copyright 1990, Gaussian, Inc.),
 the Gaussian 88(TM) system (copyright 1988, Gaussian, Inc.),
 the Gaussian 86(TM) system (copyright 1986, Carnegie Mellon
 University), and the Gaussian 82(TM) system (copyright 1983,
 Carnegie Mellon University). Gaussian is a federally registered
 trademark of Gaussian, Inc.
  
 This software contains proprietary and confidential information,
 including trade secrets, belonging to Gaussian, Inc.
  
 This software is provided under written license and may be
 used, copied, transmitted, or stored only in accord with that
 written license.
  
 The following legend is applicable only to US Government
 contracts under FAR:
  
                    RESTRICTED RIGHTS LEGEND
  
 Use, reproduction and disclosure by the US Government is
 subject to restrictions as set forth in subparagraphs (a)
 and (c) of the Commercial Computer Software - Restricted
 Rights clause in FAR 52.227-19.
  
 Gaussian, Inc.
 340 Quinnipiac St., Bldg. 40, Wallingford CT 06492
  
  
 ---------------------------------------------------------------
 Warning -- This program may not be used in any manner that
 competes with the business of Gaussian, Inc. or will provide
 assistance to any competitor of Gaussian, Inc.  The licensee
 of this program is prohibited from giving any competitor of
 Gaussian, Inc. access to this program.  By using this program,
 the user acknowledges that Gaussian, Inc. is engaged in the
 business of creating and licensing software in the field of
 computational chemistry and represents and warrants to the
 licensee that it is not a competitor of Gaussian, Inc. and that
 it will not use this program in any manner prohibited above.
 ---------------------------------------------------------------
  

 Cite this work as:
 Gaussian 16, Revision B.01,
 M. J. Frisch, G. W. Trucks, H. B. Schlegel, G. E. Scuseria, 
 M. A. Robb, J. R. Cheeseman, G. Scalmani, V. Barone, 
 G. A. Petersson, H. Nakatsuji, X. Li, M. Caricato, A. V. Marenich, 
 J. Bloino, B. G. Janesko, R. Gomperts, B. Mennucci, H. P. Hratchian, 
 J. V. Ortiz, A. F. Izmaylov, J. L. Sonnenberg, D. Williams-Young, 
 F. Ding, F. Lipparini, F. Egidi, J. Goings, B. Peng, A. Petrone, 
 T. Henderson, D. Ranasinghe, V. G. Zakrzewski, J. Gao, N. Rega, 
 G. Zheng, W. Liang, M. Hada, M. Ehara, K. Toyota, R. Fukuda, 
 J. Hasegawa, M. Ishida, T. Nakajima, Y. Honda, O. Kitao, H. Nakai, 
 T. Vreven, K. Throssell, J. A. Montgomery, Jr., J. E. Peralta, 
 F. Ogliaro, M. J. Bearpark, J. J. Heyd, E. N. Brothers, K. N. Kudin, 
 V. N. Staroverov, T. A. Keith, R. Kobayashi, J. Normand, 
 K. Raghavachari, A. P. Rendell, J. C. Burant, S. S. Iyengar, 
 J. Tomasi, M. Cossi, J. M. Millam, M. Klene, C. Adamo, R. Cammi, 
 J. W. Ochterski, R. L. Martin, K. Morokuma, O. Farkas, 
 J. B. Foresman, and D. J. Fox, Gaussian, Inc., Wallingford CT, 2016.
 
 ******************************************
 Gaussian 16:  EM64L-G16RevB.01 20-Dec-2017
                10-Sep-2020 
 ******************************************
  %mem=500MB
  %nproc=2
 Will use up to    2 processors via shared memory.
 -----------------------------------------------
 #p b3lyp def2svp force units(au) TD(NAC) nosymm
 -----------------------------------------------
 1/10=7,20=1,30=1,38=1/1,3;
 2/12=2,15=1,17=6,18=5,40=1/2;
 3/5=43,7=101,11=9,25=1,30=1,71=1,74=-5/1,2,3,8;
 4//1;
 5/5=2,38=5/2;
 8/6=1,10=1/1;
 9/15=2,42=1,70=2/14;
 10/5=2004,31=1/2;
 6/7=2,8=2,9=2,10=2,18=1/1;
 7/12=6,13=8,29=1,30=1/1,2,3,16;
 1/10=7,30=1/3;
 99//99;
 Leave Link    1 at Thu Sep 10 19:57:58 2020, MaxMem=    65536000 cpu:               0.1 elap:               0.0
 (Enter /home/public/wbh/soft/g16/l101.exe)
 --------------------------------------------------------------
 generate for AIMD to electronic calculate potential and force.
 --------------------------------------------------------------
 Symbolic Z-matrix:
 Charge =  0 Multiplicity = 1
 O                     3.41719  -0.61359   0.56022 
 H                     3.2607    5.39434  -0.69494 
 H                     4.14591  -2.2853    1.3461 
 
 ITRead=  0  0  0
 MicOpt= -1 -1 -1
 NAtoms=      3 NQM=        3 NQMF=       0 NMMI=      0 NMMIF=      0
                NMic=       0 NMicF=      0.
                    Isotopes and Nuclear Properties:
 (Nuclear quadrupole moments (NQMom) in fm**2, nuclear magnetic moments (NMagM)
  in nuclear magnetons)

  Atom         1           2           3
 IAtWgt=          16           1           1
 AtmWgt=  15.9949146   1.0078250   1.0078250
 NucSpn=           0           1           1
 AtZEff=   0.0000000   0.0000000   0.0000000
 NQMom=    0.0000000   0.0000000   0.0000000
 NMagM=    0.0000000   2.7928460   2.7928460
 AtZNuc=   8.0000000   1.0000000   1.0000000
 Leave Link  101 at Thu Sep 10 19:57:58 2020, MaxMem=    65536000 cpu:               0.1 elap:               0.1
 (Enter /home/public/wbh/soft/g16/l103.exe)

 GradGradGradGradGradGradGradGradGradGradGradGradGradGradGradGradGradGrad
 Berny optimization.
 Initialization pass.
 Trust Radius=3.00D-01 FncErr=1.00D-07 GrdErr=1.00D-07 EigMax=2.50D+02 EigMin=1.00D-04
 Number of steps in this run=      2 maximum allowed number of steps=      2.
 GradGradGradGradGradGradGradGradGradGradGradGradGradGradGradGradGradGrad

 Leave Link  103 at Thu Sep 10 19:57:58 2020, MaxMem=    65536000 cpu:               0.0 elap:               0.0
 (Enter /home/public/wbh/soft/g16/l202.exe)
                          Input orientation:                          
 ---------------------------------------------------------------------
 Center     Atomic      Atomic             Coordinates (Angstroms)
 Number     Number       Type             X           Y           Z
 ---------------------------------------------------------------------
      1          8           0        1.808298   -0.324695    0.296456
      2          1           0        1.725488    2.854563   -0.367744
      3          1           0        2.193919   -1.209326    0.712326
 ---------------------------------------------------------------------
                    Distance matrix (angstroms):
                    1          2          3
     1  O    0.000000
     2  H    3.248954   0.000000
     3  H    1.050820   4.230977   0.000000
 Symmetry turned off by external request.
 Stoichiometry    H2O
 Framework group  CS[SG(H2O)]
 Deg. of freedom     3
 Full point group                 CS      NOp   2
 Rotational constants (GHZ):        3299.3586974          44.7539048          44.1549680
 Leave Link  202 at Thu Sep 10 19:57:58 2020, MaxMem=    65536000 cpu:               0.0 elap:               0.0
 (Enter /home/public/wbh/soft/g16/l301.exe)
 Standard basis: def2SVP (5D, 7F)
 Ernie: Thresh=  0.10000D-02 Tol=  0.10000D-05 Strict=F.
    24 basis functions,    39 primitive gaussians,    25 cartesian basis functions
     5 alpha electrons        5 beta electrons
       nuclear repulsion energy         5.4567606668 Hartrees.
 IExCor=  402 DFT=T Ex+Corr=B3LYP ExCW=0 ScaHFX=  0.200000
 ScaDFX=  0.800000  0.720000  1.000000  0.810000 ScalE2=  1.000000  1.000000
 IRadAn=      5 IRanWt=     -1 IRanGd=            0 ICorTp=0 IEmpDi=  4
 NAtoms=    3 NActive=    3 NUniq=    3 SFac= 1.00D+00 NAtFMM=   60 NAOKFM=F Big=F
 Integral buffers will be    131072 words long.
 Regular integral format.
 Two-electron integral symmetry is turned off.
 Leave Link  301 at Thu Sep 10 19:57:58 2020, MaxMem=    65536000 cpu:               0.1 elap:               0.0
 (Enter /home/public/wbh/soft/g16/l302.exe)
 NPDir=0 NMtPBC=     1 NCelOv=     1 NCel=       1 NClECP=     1 NCelD=      1
         NCelK=      1 NCelE2=     1 NClLst=     1 CellRange=     0.0.
 One-electron integrals computed using PRISM.
   1 Symmetry operations used in ECPInt.
 ECPInt:  NShTT=      78 NPrTT=     272 LenC2=      79 LenP2D=     254.
 LDataN:  DoStor=T MaxTD1= 4 Len=   56
 NBasis=    24 RedAO= T EigKep=  6.35D-02  NBF=    24
 NBsUse=    24 1.00D-06 EigRej= -1.00D+00 NBFU=    24
 Precomputing XC quadrature grid using
 IXCGrd= 4 IRadAn=           5 IRanWt=          -1 IRanGd=           0 AccXCQ= 0.00D+00.
 Generated NRdTot=       0 NPtTot=           0 NUsed=           0 NTot=          32
 NSgBfM=    25    25    25    25    25 MxSgAt=     3 MxSgA2=     3.
 Leave Link  302 at Thu Sep 10 19:57:58 2020, MaxMem=    65536000 cpu:               0.2 elap:               0.1
 (Enter /home/public/wbh/soft/g16/l303.exe)
 DipDrv:  MaxL=1.
 Leave Link  303 at Thu Sep 10 19:57:59 2020, MaxMem=    65536000 cpu:               0.0 elap:               0.0
 (Enter /home/public/wbh/soft/g16/l308.exe)
 Leave Link  308 at Thu Sep 10 19:57:59 2020, MaxMem=    65536000 cpu:               0.0 elap:               0.0
 (Enter /home/public/wbh/soft/g16/l401.exe)
 ExpMin= 1.22D-01 ExpMax= 2.27D+03 ExpMxC= 3.41D+02 IAcc=3 IRadAn=         5 AccDes= 0.00D+00
 Harris functional with IExCor=  402 and IRadAn=       5 diagonalized for initial guess.
 HarFok:  IExCor=  402 AccDes= 0.00D+00 IRadAn=         5 IDoV= 1 UseB2=F ITyADJ=14
 ICtDFT=  3500011 ScaDFX=  1.000000  1.000000  1.000000  1.000000
 FoFCou: FMM=F IPFlag=           0 FMFlag=      100000 FMFlg1=           0
         NFxFlg=           0 DoJE=T BraDBF=F KetDBF=T FulRan=T
         wScrn=  0.000000 ICntrl=       500 IOpCl=  0 I1Cent=   200000004 NGrid=           0
         NMat0=    1 NMatS0=      1 NMatT0=    0 NMatD0=    1 NMtDS0=    0 NMtDT0=    0
 Symmetry not used in FoFCou.
 Harris En= -76.2099445080808    
 JPrj=0 DoOrth=F DoCkMO=F.
 Leave Link  401 at Thu Sep 10 19:57:59 2020, MaxMem=    65536000 cpu:               0.5 elap:               0.3
 (Enter /home/public/wbh/soft/g16/l502.exe)
 Keep R1 ints in memory in canonical form, NReq=1772082.
 FoFCou: FMM=F IPFlag=           0 FMFlag=           0 FMFlg1=           0
         NFxFlg=           0 DoJE=F BraDBF=F KetDBF=F FulRan=T
         wScrn=  0.000000 ICntrl=       600 IOpCl=  0 I1Cent=           0 NGrid=           0
         NMat0=    1 NMatS0=    300 NMatT0=    0 NMatD0=    1 NMtDS0=    0 NMtDT0=    0
 Symmetry not used in FoFCou.
 Two-electron integral symmetry not used.
 Closed shell SCF:
 Using DIIS extrapolation, IDIIS=  1040.
 NGot=    65536000 LenX=    65489084 LenY=    65488018
 Requested convergence on RMS density matrix=1.00D-08 within 128 cycles.
 Requested convergence on MAX density matrix=1.00D-06.
 Requested convergence on             energy=1.00D-06.
 No special actions if energy rises.
 Integral accuracy reduced to 1.0D-05 until final iterations.

 Cycle   1  Pass 0  IDiag  1:
 E= -75.6485607142560    
 DIIS: error= 9.48D-02 at cycle   1 NSaved=   1.
 NSaved= 1 IEnMin= 1 EnMin= -75.6485607142560     IErMin= 1 ErrMin= 9.48D-02
 ErrMax= 9.48D-02  0.00D+00 EMaxC= 1.00D-01 BMatC= 2.33D-01 BMatP= 2.33D-01
 IDIUse=3 WtCom= 5.22D-02 WtEn= 9.48D-01
 Coeff-Com:  0.100D+01
 Coeff-En:   0.100D+01
 Coeff:      0.100D+01
 Gap=    -0.685 Goal=   None    Shift=    0.000
 GapD=   -0.685 DampG=0.250 DampE=0.500 DampFc=0.2500 IDamp=-1.
 Damping current iteration by 2.50D-01
 RMSDP=5.93D-02 MaxDP=5.20D-01              OVMax= 9.91D-01

 Cycle   2  Pass 0  IDiag  1:
 E= -75.9172967521141     Delta-E=       -0.268736037858 Rises=F Damp=T
 DIIS: error= 2.28D-02 at cycle   2 NSaved=   2.
 NSaved= 2 IEnMin= 2 EnMin= -75.9172967521141     IErMin= 2 ErrMin= 2.28D-02
 ErrMax= 2.28D-02  0.00D+00 EMaxC= 1.00D-01 BMatC= 6.51D-03 BMatP= 2.33D-01
 IDIUse=3 WtCom= 7.72D-01 WtEn= 2.28D-01
 Coeff-Com: -0.125D+00 0.113D+01
 Coeff-En:   0.000D+00 0.100D+01
 Coeff:     -0.965D-01 0.110D+01
 Gap=    -0.018 Goal=   None    Shift=    0.000
 RMSDP=2.90D-02 MaxDP=2.46D-01 DE=-2.69D-01 OVMax= 3.13D-01

 Cycle   3  Pass 0  IDiag  1:
 E= -75.4574196989923     Delta-E=        0.459877053122 Rises=F Damp=F
 DIIS: error= 8.74D-02 at cycle   3 NSaved=   3.
 NSaved= 3 IEnMin= 2 EnMin= -75.9172967521141     IErMin= 2 ErrMin= 2.28D-02
 ErrMax= 8.74D-02  0.00D+00 EMaxC= 1.00D-01 BMatC= 2.31D-01 BMatP= 6.51D-03
 IDIUse=2 WtCom= 0.00D+00 WtEn= 1.00D+00
 EnCoef did   100 forward-backward iterations
 Coeff-En:   0.531D+00 0.316D-01 0.437D+00
 Coeff:      0.531D+00 0.316D-01 0.437D+00
 Gap=     0.036 Goal=   None    Shift=    0.000
 RMSDP=3.73D-02 MaxDP=3.71D-01 DE= 4.60D-01 OVMax= 1.00D+00

 Cycle   4  Pass 0  IDiag  1:
 E= -75.7883386563487     Delta-E=       -0.330918957356 Rises=F Damp=F
 DIIS: error= 4.25D-02 at cycle   4 NSaved=   4.
 NSaved= 4 IEnMin= 2 EnMin= -75.9172967521141     IErMin= 2 ErrMin= 2.28D-02
 ErrMax= 4.25D-02  0.00D+00 EMaxC= 1.00D-01 BMatC= 5.50D-02 BMatP= 6.51D-03
 IDIUse=2 WtCom= 0.00D+00 WtEn= 1.00D+00
 Coeff-En:   0.000D+00 0.000D+00 0.393D+00 0.607D+00
 Coeff:      0.000D+00 0.000D+00 0.393D+00 0.607D+00
 Gap=     0.043 Goal=   None    Shift=    0.000
 RMSDP=3.43D-03 MaxDP=2.85D-02 DE=-3.31D-01 OVMax= 3.84D-02

 Cycle   5  Pass 0  IDiag  1:
 E= -75.7434878302464     Delta-E=        0.044850826102 Rises=F Damp=F
 DIIS: error= 6.47D-02 at cycle   5 NSaved=   5.
 NSaved= 5 IEnMin= 2 EnMin= -75.9172967521141     IErMin= 2 ErrMin= 2.28D-02
 ErrMax= 6.47D-02  0.00D+00 EMaxC= 1.00D-01 BMatC= 1.19D-01 BMatP= 6.51D-03
 IDIUse=2 WtCom= 0.00D+00 WtEn= 1.00D+00
 Coeff-En:   0.000D+00 0.000D+00 0.414D+00 0.000D+00 0.586D+00
 Coeff:      0.000D+00 0.000D+00 0.414D+00 0.000D+00 0.586D+00
 Gap=     0.040 Goal=   None    Shift=    0.000
 RMSDP=1.82D-03 MaxDP=1.51D-02 DE= 4.49D-02 OVMax= 2.05D-02

 Cycle   6  Pass 0  IDiag  1:
 E= -75.7724025771831     Delta-E=       -0.028914746937 Rises=F Damp=F
 DIIS: error= 5.25D-02 at cycle   6 NSaved=   6.
 NSaved= 6 IEnMin= 2 EnMin= -75.9172967521141     IErMin= 2 ErrMin= 2.28D-02
 ErrMax= 5.25D-02  0.00D+00 EMaxC= 1.00D-01 BMatC= 8.08D-02 BMatP= 6.51D-03
 IDIUse=2 WtCom= 0.00D+00 WtEn= 1.00D+00
 Coeff-En:   0.000D+00 0.000D+00 0.402D+00 0.000D+00 0.000D+00 0.598D+00
 Coeff:      0.000D+00 0.000D+00 0.402D+00 0.000D+00 0.000D+00 0.598D+00
 Gap=     0.038 Goal=   None    Shift=    0.000
 RMSDP=9.40D-04 MaxDP=7.66D-03 DE=-2.89D-02 OVMax= 1.06D-02

 Cycle   7  Pass 0  IDiag  1:
 E= -75.7594627167925     Delta-E=        0.012939860391 Rises=F Damp=F
 DIIS: error= 5.87D-02 at cycle   7 NSaved=   7.
 NSaved= 7 IEnMin= 2 EnMin= -75.9172967521141     IErMin= 2 ErrMin= 2.28D-02
 ErrMax= 5.87D-02  0.00D+00 EMaxC= 1.00D-01 BMatC= 9.92D-02 BMatP= 6.51D-03
 IDIUse=2 WtCom= 0.00D+00 WtEn= 1.00D+00
 Coeff-En:   0.000D+00 0.000D+00 0.408D+00 0.000D+00 0.000D+00 0.000D+00
 Coeff-En:   0.592D+00
 Coeff:      0.000D+00 0.000D+00 0.408D+00 0.000D+00 0.000D+00 0.000D+00
 Coeff:      0.592D+00
 Gap=     0.038 Goal=   None    Shift=    0.000
 RMSDP=4.91D-04 MaxDP=4.06D-03 DE= 1.29D-02 OVMax= 5.54D-03

 Cycle   8  Pass 0  IDiag  1:
 E= -75.7670061025378     Delta-E=       -0.007543385745 Rises=F Damp=F
 DIIS: error= 5.54D-02 at cycle   8 NSaved=   8.
 NSaved= 8 IEnMin= 2 EnMin= -75.9172967521141     IErMin= 2 ErrMin= 2.28D-02
 ErrMax= 5.54D-02  0.00D+00 EMaxC= 1.00D-01 BMatC= 8.93D-02 BMatP= 6.51D-03
 IDIUse=2 WtCom= 0.00D+00 WtEn= 1.00D+00
 Coeff-En:   0.000D+00 0.000D+00 0.404D+00 0.000D+00 0.000D+00 0.000D+00
 Coeff-En:   0.000D+00 0.596D+00
 Coeff:      0.000D+00 0.000D+00 0.404D+00 0.000D+00 0.000D+00 0.000D+00
 Coeff:      0.000D+00 0.596D+00
 Gap=     0.038 Goal=   None    Shift=    0.000
 RMSDP=2.57D-04 MaxDP=2.09D-03 DE=-7.54D-03 OVMax= 2.89D-03

 Cycle   9  Pass 0  IDiag  1:
 E= -75.7633790361570     Delta-E=        0.003627066381 Rises=F Damp=F
 DIIS: error= 5.71D-02 at cycle   9 NSaved=   9.
 NSaved= 9 IEnMin= 2 EnMin= -75.9172967521141     IErMin= 2 ErrMin= 2.28D-02
 ErrMax= 5.71D-02  0.00D+00 EMaxC= 1.00D-01 BMatC= 9.44D-02 BMatP= 6.51D-03
 IDIUse=2 WtCom= 0.00D+00 WtEn= 1.00D+00
 Coeff-En:   0.000D+00 0.000D+00 0.406D+00 0.000D+00 0.000D+00 0.000D+00
 Coeff-En:   0.000D+00 0.000D+00 0.594D+00
 Coeff:      0.000D+00 0.000D+00 0.406D+00 0.000D+00 0.000D+00 0.000D+00
 Coeff:      0.000D+00 0.000D+00 0.594D+00
 Gap=     0.037 Goal=   None    Shift=    0.000
 RMSDP=1.34D-04 MaxDP=1.10D-03 DE= 3.63D-03 OVMax= 1.51D-03

 Cycle  10  Pass 0  IDiag  1:
 E= -75.7654022540124     Delta-E=       -0.002023217855 Rises=F Damp=F
 DIIS: error= 5.62D-02 at cycle  10 NSaved=  10.
 NSaved=10 IEnMin= 2 EnMin= -75.9172967521141     IErMin= 2 ErrMin= 2.28D-02
 ErrMax= 5.62D-02  0.00D+00 EMaxC= 1.00D-01 BMatC= 9.17D-02 BMatP= 6.51D-03
 IDIUse=2 WtCom= 0.00D+00 WtEn= 1.00D+00
 Coeff-En:   0.000D+00 0.000D+00 0.405D+00 0.000D+00 0.000D+00 0.000D+00
 Coeff-En:   0.000D+00 0.000D+00 0.000D+00 0.595D+00
 Coeff:      0.000D+00 0.000D+00 0.405D+00 0.000D+00 0.000D+00 0.000D+00
 Coeff:      0.000D+00 0.000D+00 0.000D+00 0.595D+00
 Gap=     0.037 Goal=   None    Shift=    0.000
 RMSDP=7.00D-05 MaxDP=5.71D-04 DE=-2.02D-03 OVMax= 7.90D-04

 Cycle  11  Pass 0  IDiag  1:
 E= -75.7643977495998     Delta-E=        0.001004504413 Rises=F Damp=F
 DIIS: error= 5.66D-02 at cycle  11 NSaved=  11.
 NSaved=11 IEnMin= 2 EnMin= -75.9172967521141     IErMin= 2 ErrMin= 2.28D-02
 ErrMax= 5.66D-02  0.00D+00 EMaxC= 1.00D-01 BMatC= 9.31D-02 BMatP= 6.51D-03
 IDIUse=2 WtCom= 0.00D+00 WtEn= 1.00D+00
 Coeff-En:   0.000D+00 0.000D+00 0.405D+00 0.000D+00 0.000D+00 0.000D+00
 Coeff-En:   0.000D+00 0.000D+00 0.000D+00 0.000D+00 0.595D+00
 Coeff:      0.000D+00 0.000D+00 0.405D+00 0.000D+00 0.000D+00 0.000D+00
 Coeff:      0.000D+00 0.000D+00 0.000D+00 0.000D+00 0.595D+00
 Gap=     0.037 Goal=   None    Shift=    0.000
 RMSDP=3.64D-05 MaxDP=3.00D-04 DE= 1.00D-03 OVMax= 4.12D-04

 Cycle  12  Pass 0  IDiag  1:
 E= -75.7649451633940     Delta-E=       -0.000547413794 Rises=F Damp=F
 DIIS: error= 5.64D-02 at cycle  12 NSaved=  12.
 NSaved=12 IEnMin= 2 EnMin= -75.9172967521141     IErMin= 2 ErrMin= 2.28D-02
 ErrMax= 5.64D-02  0.00D+00 EMaxC= 1.00D-01 BMatC= 9.23D-02 BMatP= 6.51D-03
 IDIUse=2 WtCom= 0.00D+00 WtEn= 1.00D+00
 Coeff-En:   0.000D+00 0.000D+00 0.405D+00 0.000D+00 0.000D+00 0.000D+00
 Coeff-En:   0.000D+00 0.000D+00 0.000D+00 0.000D+00 0.000D+00 0.595D+00
 Coeff:      0.000D+00 0.000D+00 0.405D+00 0.000D+00 0.000D+00 0.000D+00
 Coeff:      0.000D+00 0.000D+00 0.000D+00 0.000D+00 0.000D+00 0.595D+00
 Gap=     0.037 Goal=   None    Shift=    0.000
 RMSDP=1.91D-05 MaxDP=1.56D-04 DE=-5.47D-04 OVMax= 2.16D-04

 Cycle  13  Pass 0  IDiag  1:
 E= -75.7646684986676     Delta-E=        0.000276664726 Rises=F Damp=F
 DIIS: error= 5.65D-02 at cycle  13 NSaved=  13.
 NSaved=13 IEnMin= 2 EnMin= -75.9172967521141     IErMin= 2 ErrMin= 2.28D-02
 ErrMax= 5.65D-02  0.00D+00 EMaxC= 1.00D-01 BMatC= 9.27D-02 BMatP= 6.51D-03
 IDIUse=2 WtCom= 0.00D+00 WtEn= 1.00D+00
 Coeff-En:   0.000D+00 0.000D+00 0.405D+00 0.000D+00 0.000D+00 0.000D+00
 Coeff-En:   0.000D+00 0.000D+00 0.000D+00 0.000D+00 0.000D+00 0.000D+00
 Coeff-En:   0.595D+00
 Coeff:      0.000D+00 0.000D+00 0.405D+00 0.000D+00 0.000D+00 0.000D+00
 Coeff:      0.000D+00 0.000D+00 0.000D+00 0.000D+00 0.000D+00 0.000D+00
 Coeff:      0.595D+00
 Gap=     0.037 Goal=   None    Shift=    0.000
 RMSDP=9.96D-06 MaxDP=8.19D-05 DE= 2.77D-04 OVMax= 1.13D-04

 Initial convergence to 1.0D-05 achieved.  Increase integral accuracy.
 Cycle  14  Pass 1  IDiag  1:
 E= -75.7648154553718     Delta-E=       -0.000146956704 Rises=F Damp=F
 DIIS: error= 5.65D-02 at cycle   1 NSaved=   1.
 NSaved= 1 IEnMin= 1 EnMin= -75.7648154553718     IErMin= 1 ErrMin= 5.65D-02
 ErrMax= 5.65D-02  0.00D+00 EMaxC= 1.00D-01 BMatC= 9.25D-02 BMatP= 9.25D-02
 IDIUse=3 WtCom= 4.35D-01 WtEn= 5.65D-01
 Coeff-Com:  0.100D+01
 Coeff-En:   0.100D+01
 Coeff:      0.100D+01
 Gap=    -0.578 Goal=   None    Shift=    0.000
 RMSDP=9.96D-06 MaxDP=8.19D-05 DE=-1.47D-04 OVMax= 9.90D-01

 Cycle  15  Pass 1  IDiag  1:
 E= -74.8142393337175     Delta-E=        0.950576121654 Rises=F Damp=F
 DIIS: error= 1.86D-01 at cycle   2 NSaved=   2.
 NSaved= 2 IEnMin= 1 EnMin= -75.7648154553718     IErMin= 1 ErrMin= 5.65D-02
 ErrMax= 1.86D-01  0.00D+00 EMaxC= 1.00D-01 BMatC= 8.84D-01 BMatP= 9.25D-02
 IDIUse=2 WtCom= 0.00D+00 WtEn= 1.00D+00
 Coeff-En:   0.701D+00 0.299D+00
 Coeff:      0.701D+00 0.299D+00
 Gap=     0.018 Goal=   None    Shift=    0.000
 RMSDP=2.53D-02 MaxDP=2.32D-01 DE= 9.51D-01 OVMax= 2.44D-01

 Cycle  16  Pass 1  IDiag  1:
 E= -75.5755103652868     Delta-E=       -0.761271031569 Rises=F Damp=F
 DIIS: error= 6.47D-02 at cycle   3 NSaved=   3.
 NSaved= 3 IEnMin= 1 EnMin= -75.7648154553718     IErMin= 1 ErrMin= 5.65D-02
 ErrMax= 6.47D-02  0.00D+00 EMaxC= 1.00D-01 BMatC= 1.28D-01 BMatP= 9.25D-02
 IDIUse=2 WtCom= 0.00D+00 WtEn= 1.00D+00
 Coeff-En:   0.566D+00 0.000D+00 0.434D+00
 Coeff:      0.566D+00 0.000D+00 0.434D+00
 Gap=     0.025 Goal=   None    Shift=    0.000
 RMSDP=3.72D-02 MaxDP=3.16D-01 DE=-7.61D-01 OVMax= 1.00D+00

 Cycle  17  Pass 1  IDiag  1:
 E= -75.7707399740648     Delta-E=       -0.195229608778 Rises=F Damp=F
 DIIS: error= 5.28D-02 at cycle   4 NSaved=   4.
 NSaved= 4 IEnMin= 4 EnMin= -75.7707399740648     IErMin= 4 ErrMin= 5.28D-02
 ErrMax= 5.28D-02  0.00D+00 EMaxC= 1.00D-01 BMatC= 8.24D-02 BMatP= 9.25D-02
 IDIUse=3 WtCom= 4.72D-01 WtEn= 5.28D-01
 Rare condition: small coef for last iteration:  0.000D+00
 Coeff-Com: -0.362D+01-0.108D+00 0.555D+00 0.417D+01
 Coeff-En:   0.200D-02 0.000D+00 0.430D+00 0.568D+00
 Coeff:     -0.362D+01-0.108D+00 0.555D+00 0.417D+01
 Gap=     0.057 Goal=   None    Shift=    0.000
 RMSDP=1.50D-03 MaxDP=1.06D-02 DE=-1.95D-01 OVMax= 2.33D-02

 Cycle  18  Pass 1  IDiag  1:
 E= -75.7512963678401     Delta-E=        0.019443606225 Rises=F Damp=F
 DIIS: error= 5.95D-02 at cycle   5 NSaved=   5.
 NSaved= 5 IEnMin= 4 EnMin= -75.7707399740648     IErMin= 4 ErrMin= 5.28D-02
 ErrMax= 5.95D-02  0.00D+00 EMaxC= 1.00D-01 BMatC= 1.04D-01 BMatP= 8.24D-02
 IDIUse=2 WtCom= 0.00D+00 WtEn= 1.00D+00
 EnCoef did   100 forward-backward iterations
 Rare condition: small coef for last iteration: -0.174D-15
 Coeff-En:   0.979D-02 0.000D+00 0.435D+00 0.000D+00 0.555D+00
 Coeff:      0.979D-02 0.000D+00 0.435D+00 0.000D+00 0.555D+00
 Gap=     0.040 Goal=   None    Shift=    0.000
 RMSDP=1.80D-03 MaxDP=1.46D-02 DE= 1.94D-02 OVMax= 2.03D-02

 Cycle  19  Pass 1  IDiag  1:
 E= -75.7762101092731     Delta-E=       -0.024913741433 Rises=F Damp=F
 DIIS: error= 4.96D-02 at cycle   6 NSaved=   6.
 NSaved= 6 IEnMin= 6 EnMin= -75.7762101092731     IErMin= 6 ErrMin= 4.96D-02
 ErrMax= 4.96D-02  0.00D+00 EMaxC= 1.00D-01 BMatC= 7.37D-02 BMatP= 8.24D-02
 IDIUse=3 WtCom= 5.04D-01 WtEn= 4.96D-01
 Large coefficients: NSaved=  6 BigCof=   43.74 CofMax=   10.00 Det=-2.10D-06
 Inversion failed.  Reducing to  5 matrices.
 Large coefficients: NSaved=  5 BigCof=   42.89 CofMax=   10.00 Det=-2.43D-06
 Inversion failed.  Reducing to  4 matrices.
 Large coefficients: NSaved=  4 BigCof=   49.65 CofMax=   10.00 Det=-7.09D-06
 Inversion failed.  Reducing to  3 matrices.
 Large coefficients: NSaved=  3 BigCof=   16.27 CofMax=   10.00 Det=-5.24D-05
 Inversion failed.  Reducing to  2 matrices.
 Coeff-Com: -0.376D+01 0.476D+01
 Coeff-En:   0.000D+00 0.100D+01
 Coeff:     -0.190D+01 0.290D+01
 Gap=    -0.516 Goal=   None    Shift=    0.000
 RMSDP=4.07D-02 MaxDP=4.31D-01 DE=-2.49D-02 OVMax= 9.95D-01

 Cycle  20  Pass 1  IDiag  1:
 E= -75.0703932593908     Delta-E=        0.705816849882 Rises=F Damp=F
 DIIS: error= 1.54D-01 at cycle   7 NSaved=   3.
 NSaved= 3 IEnMin= 2 EnMin= -75.7762101092731     IErMin= 2 ErrMin= 4.96D-02
 ErrMax= 1.54D-01  0.00D+00 EMaxC= 1.00D-01 BMatC= 6.29D-01 BMatP= 7.37D-02
 IDIUse=2 WtCom= 0.00D+00 WtEn= 1.00D+00
 Coeff-En:   0.000D+00 0.672D+00 0.328D+00
 Coeff:      0.000D+00 0.672D+00 0.328D+00
 Gap=     0.024 Goal=   None    Shift=    0.000
 RMSDP=1.92D-02 MaxDP=1.69D-01 DE= 7.06D-01 OVMax= 1.77D-01

 Cycle  21  Pass 1  IDiag  1:
 E= -75.5923413246404     Delta-E=       -0.521948065250 Rises=F Damp=F
 DIIS: error= 6.04D-02 at cycle   8 NSaved=   4.
 NSaved= 4 IEnMin= 2 EnMin= -75.7762101092731     IErMin= 2 ErrMin= 4.96D-02
 ErrMax= 6.04D-02  0.00D+00 EMaxC= 1.00D-01 BMatC= 1.12D-01 BMatP= 7.37D-02
 IDIUse=2 WtCom= 0.00D+00 WtEn= 1.00D+00
 Coeff-En:   0.000D+00 0.567D+00 0.000D+00 0.433D+00
 Coeff:      0.000D+00 0.567D+00 0.000D+00 0.433D+00
 Gap=    -0.042 Goal=   None    Shift=    0.000
 RMSDP=3.72D-02 MaxDP=3.31D-01 DE=-5.22D-01 OVMax= 1.00D+00

 Cycle  22  Pass 1  IDiag  1:
 E= -75.7640459894465     Delta-E=       -0.171704664806 Rises=F Damp=F
 DIIS: error= 5.55D-02 at cycle   9 NSaved=   5.
 NSaved= 5 IEnMin= 2 EnMin= -75.7762101092731     IErMin= 2 ErrMin= 4.96D-02
 ErrMax= 5.55D-02  0.00D+00 EMaxC= 1.00D-01 BMatC= 9.03D-02 BMatP= 7.37D-02
 IDIUse=2 WtCom= 0.00D+00 WtEn= 1.00D+00
 Coeff-En:   0.000D+00 0.000D+00 0.000D+00 0.439D+00 0.561D+00
 Coeff:      0.000D+00 0.000D+00 0.000D+00 0.439D+00 0.561D+00
 Gap=     0.042 Goal=   None    Shift=    0.000
 RMSDP=4.74D-04 MaxDP=3.89D-03 DE=-1.72D-01 OVMax= 5.33D-03

 Cycle  23  Pass 1  IDiag  1:
 E= -75.7708310933630     Delta-E=       -0.006785103916 Rises=F Damp=F
 DIIS: error= 5.23D-02 at cycle  10 NSaved=   6.
 NSaved= 6 IEnMin= 2 EnMin= -75.7762101092731     IErMin= 2 ErrMin= 4.96D-02
 ErrMax= 5.23D-02  0.00D+00 EMaxC= 1.00D-01 BMatC= 8.12D-02 BMatP= 7.37D-02
 IDIUse=2 WtCom= 0.00D+00 WtEn= 1.00D+00
 Coeff-En:   0.000D+00 0.000D+00 0.000D+00 0.436D+00 0.000D+00 0.564D+00
 Coeff:      0.000D+00 0.000D+00 0.000D+00 0.436D+00 0.000D+00 0.564D+00
 Gap=     0.043 Goal=   None    Shift=    0.000
 RMSDP=2.50D-04 MaxDP=2.06D-03 DE=-6.79D-03 OVMax= 2.83D-03

 Cycle  24  Pass 1  IDiag  1:
 E= -75.7673740348059     Delta-E=        0.003457058557 Rises=F Damp=F
 DIIS: error= 5.40D-02 at cycle  11 NSaved=   7.
 NSaved= 7 IEnMin= 2 EnMin= -75.7762101092731     IErMin= 2 ErrMin= 4.96D-02
 ErrMax= 5.40D-02  0.00D+00 EMaxC= 1.00D-01 BMatC= 8.59D-02 BMatP= 7.37D-02
 IDIUse=2 WtCom= 0.00D+00 WtEn= 1.00D+00
 Coeff-En:   0.000D+00 0.000D+00 0.000D+00 0.437D+00 0.000D+00 0.000D+00
 Coeff-En:   0.563D+00
 Coeff:      0.000D+00 0.000D+00 0.000D+00 0.437D+00 0.000D+00 0.000D+00
 Coeff:      0.563D+00
 Gap=     0.042 Goal=   None    Shift=    0.000
 RMSDP=1.33D-04 MaxDP=1.09D-03 DE= 3.46D-03 OVMax= 1.50D-03

 Cycle  25  Pass 1  IDiag  1:
 E= -75.7692565089491     Delta-E=       -0.001882474143 Rises=F Damp=F
 DIIS: error= 5.31D-02 at cycle  12 NSaved=   8.
 NSaved= 8 IEnMin= 2 EnMin= -75.7762101092731     IErMin= 2 ErrMin= 4.96D-02
 ErrMax= 5.31D-02  0.00D+00 EMaxC= 1.00D-01 BMatC= 8.34D-02 BMatP= 7.37D-02
 IDIUse=2 WtCom= 0.00D+00 WtEn= 1.00D+00
 Coeff-En:   0.000D+00 0.000D+00 0.000D+00 0.436D+00 0.000D+00 0.000D+00
 Coeff-En:   0.000D+00 0.564D+00
 Coeff:      0.000D+00 0.000D+00 0.000D+00 0.436D+00 0.000D+00 0.000D+00
 Coeff:      0.000D+00 0.564D+00
 Gap=     0.042 Goal=   None    Shift=    0.000
 RMSDP=7.04D-05 MaxDP=5.79D-04 DE=-1.88D-03 OVMax= 7.95D-04

 Cycle  26  Pass 1  IDiag  1:
 E= -75.7682754929829     Delta-E=        0.000981015966 Rises=F Damp=F
 DIIS: error= 5.35D-02 at cycle  13 NSaved=   9.
 NSaved= 9 IEnMin= 2 EnMin= -75.7762101092731     IErMin= 2 ErrMin= 4.96D-02
 ErrMax= 5.35D-02  0.00D+00 EMaxC= 1.00D-01 BMatC= 8.47D-02 BMatP= 7.37D-02
 IDIUse=2 WtCom= 0.00D+00 WtEn= 1.00D+00
 Coeff-En:   0.000D+00 0.000D+00 0.000D+00 0.437D+00 0.000D+00 0.000D+00
 Coeff-En:   0.000D+00 0.000D+00 0.563D+00
 Coeff:      0.000D+00 0.000D+00 0.000D+00 0.437D+00 0.000D+00 0.000D+00
 Coeff:      0.000D+00 0.000D+00 0.563D+00
 Gap=     0.042 Goal=   None    Shift=    0.000
 RMSDP=3.73D-05 MaxDP=3.06D-04 DE= 9.81D-04 OVMax= 4.21D-04

 Cycle  27  Pass 1  IDiag  1:
 E= -75.7688015542464     Delta-E=       -0.000526061263 Rises=F Damp=F
 DIIS: error= 5.33D-02 at cycle  14 NSaved=  10.
 NSaved=10 IEnMin= 2 EnMin= -75.7762101092731     IErMin= 2 ErrMin= 4.96D-02
 ErrMax= 5.33D-02  0.00D+00 EMaxC= 1.00D-01 BMatC= 8.40D-02 BMatP= 7.37D-02
 IDIUse=2 WtCom= 0.00D+00 WtEn= 1.00D+00
 Rare condition: small coef for last iteration:  0.000D+00
 Coeff-En:   0.000D+00 0.000D+00 0.000D+00 0.437D+00 0.000D+00 0.000D+00
 Coeff-En:   0.000D+00 0.000D+00 0.000D+00 0.563D+00
 Coeff:      0.000D+00 0.000D+00 0.000D+00 0.437D+00 0.000D+00 0.000D+00
 Coeff:      0.000D+00 0.000D+00 0.000D+00 0.563D+00
 Gap=     0.042 Goal=   None    Shift=    0.000
 RMSDP=1.98D-05 MaxDP=1.63D-04 DE=-5.26D-04 OVMax= 2.23D-04

 Cycle  28  Pass 1  IDiag  1:
 E= -75.7685247736982     Delta-E=        0.000276780548 Rises=F Damp=F
 DIIS: error= 5.34D-02 at cycle  15 NSaved=  11.
 NSaved=11 IEnMin= 2 EnMin= -75.7762101092731     IErMin= 2 ErrMin= 4.96D-02
 ErrMax= 5.34D-02  0.00D+00 EMaxC= 1.00D-01 BMatC= 8.44D-02 BMatP= 7.37D-02
 IDIUse=2 WtCom= 0.00D+00 WtEn= 1.00D+00
 Coeff-En:   0.000D+00 0.000D+00 0.000D+00 0.437D+00 0.000D+00 0.000D+00
 Coeff-En:   0.000D+00 0.000D+00 0.000D+00 0.000D+00 0.563D+00
 Coeff:      0.000D+00 0.000D+00 0.000D+00 0.437D+00 0.000D+00 0.000D+00
 Coeff:      0.000D+00 0.000D+00 0.000D+00 0.000D+00 0.563D+00
 Gap=     0.042 Goal=   None    Shift=    0.000
 RMSDP=1.05D-05 MaxDP=8.61D-05 DE= 2.77D-04 OVMax= 1.18D-04

 Cycle  29  Pass 1  IDiag  1:
 E= -75.7686722442174     Delta-E=       -0.000147470519 Rises=F Damp=F
 DIIS: error= 5.34D-02 at cycle  16 NSaved=  12.
 NSaved=12 IEnMin= 2 EnMin= -75.7762101092731     IErMin= 2 ErrMin= 4.96D-02
 ErrMax= 5.34D-02  0.00D+00 EMaxC= 1.00D-01 BMatC= 8.42D-02 BMatP= 7.37D-02
 IDIUse=2 WtCom= 0.00D+00 WtEn= 1.00D+00
 Rare condition: small coef for last iteration:  0.000D+00
 Coeff-En:   0.000D+00 0.000D+00 0.000D+00 0.437D+00 0.000D+00 0.000D+00
 Coeff-En:   0.000D+00 0.000D+00 0.000D+00 0.000D+00 0.000D+00 0.563D+00
 Coeff:      0.000D+00 0.000D+00 0.000D+00 0.437D+00 0.000D+00 0.000D+00
 Coeff:      0.000D+00 0.000D+00 0.000D+00 0.000D+00 0.000D+00 0.563D+00
 Gap=     0.042 Goal=   None    Shift=    0.000
 RMSDP=5.56D-06 MaxDP=4.57D-05 DE=-1.47D-04 OVMax= 6.28D-05

 Cycle  30  Pass 1  IDiag  1:
 E= -75.7685943335829     Delta-E=        0.000077910635 Rises=F Damp=F
 DIIS: error= 5.34D-02 at cycle  17 NSaved=  13.
 NSaved=13 IEnMin= 2 EnMin= -75.7762101092731     IErMin= 2 ErrMin= 4.96D-02
 ErrMax= 5.34D-02  0.00D+00 EMaxC= 1.00D-01 BMatC= 8.43D-02 BMatP= 7.37D-02
 IDIUse=2 WtCom= 0.00D+00 WtEn= 1.00D+00
 Coeff-En:   0.000D+00 0.000D+00 0.000D+00 0.437D+00 0.000D+00 0.000D+00
 Coeff-En:   0.000D+00 0.000D+00 0.000D+00 0.000D+00 0.000D+00 0.000D+00
 Coeff-En:   0.563D+00
 Coeff:      0.000D+00 0.000D+00 0.000D+00 0.437D+00 0.000D+00 0.000D+00
 Coeff:      0.000D+00 0.000D+00 0.000D+00 0.000D+00 0.000D+00 0.000D+00
 Coeff:      0.563D+00
 Gap=     0.042 Goal=   None    Shift=    0.000
 RMSDP=2.95D-06 MaxDP=2.42D-05 DE= 7.79D-05 OVMax= 3.33D-05

 Cycle  31  Pass 1  IDiag  1:
 E= -75.7686357298582     Delta-E=       -0.000041396275 Rises=F Damp=F
 DIIS: error= 5.34D-02 at cycle  18 NSaved=  14.
 NSaved=14 IEnMin= 2 EnMin= -75.7762101092731     IErMin= 2 ErrMin= 4.96D-02
 ErrMax= 5.34D-02  0.00D+00 EMaxC= 1.00D-01 BMatC= 8.42D-02 BMatP= 7.37D-02
 IDIUse=2 WtCom= 0.00D+00 WtEn= 1.00D+00
 Rare condition: small coef for last iteration:  0.000D+00
 Coeff-En:   0.000D+00 0.000D+00 0.000D+00 0.437D+00 0.000D+00 0.000D+00
 Coeff-En:   0.000D+00 0.000D+00 0.000D+00 0.000D+00 0.000D+00 0.000D+00
 Coeff-En:   0.000D+00 0.563D+00
 Coeff:      0.000D+00 0.000D+00 0.000D+00 0.437D+00 0.000D+00 0.000D+00
 Coeff:      0.000D+00 0.000D+00 0.000D+00 0.000D+00 0.000D+00 0.000D+00
 Coeff:      0.000D+00 0.563D+00
 Gap=     0.042 Goal=   None    Shift=    0.000
 RMSDP=1.56D-06 MaxDP=1.28D-05 DE=-4.14D-05 OVMax= 1.76D-05

 Cycle  32  Pass 1  IDiag  1:
 E= -75.7686138195891     Delta-E=        0.000021910269 Rises=F Damp=F
 DIIS: error= 5.34D-02 at cycle  19 NSaved=  15.
 NSaved=15 IEnMin= 2 EnMin= -75.7762101092731     IErMin= 2 ErrMin= 4.96D-02
 ErrMax= 5.34D-02  0.00D+00 EMaxC= 1.00D-01 BMatC= 8.42D-02 BMatP= 7.37D-02
 IDIUse=2 WtCom= 0.00D+00 WtEn= 1.00D+00
 Coeff-En:   0.000D+00 0.000D+00 0.000D+00 0.437D+00 0.000D+00 0.000D+00
 Coeff-En:   0.000D+00 0.000D+00 0.000D+00 0.000D+00 0.000D+00 0.000D+00
 Coeff-En:   0.000D+00 0.000D+00 0.563D+00
 Coeff:      0.000D+00 0.000D+00 0.000D+00 0.437D+00 0.000D+00 0.000D+00
 Coeff:      0.000D+00 0.000D+00 0.000D+00 0.000D+00 0.000D+00 0.000D+00
 Coeff:      0.000D+00 0.000D+00 0.563D+00
 Gap=     0.042 Goal=   None    Shift=    0.000
 RMSDP=8.28D-07 MaxDP=6.80D-06 DE= 2.19D-05 OVMax= 9.35D-06

 Cycle  33  Pass 1  IDiag  1:
 E= -75.7686254467958     Delta-E=       -0.000011627207 Rises=F Damp=F
 DIIS: error= 5.34D-02 at cycle  20 NSaved=  16.
 NSaved=16 IEnMin= 2 EnMin= -75.7762101092731     IErMin= 2 ErrMin= 4.96D-02
 ErrMax= 5.34D-02  0.00D+00 EMaxC= 1.00D-01 BMatC= 8.42D-02 BMatP= 7.37D-02
 IDIUse=2 WtCom= 0.00D+00 WtEn= 1.00D+00
 Rare condition: small coef for last iteration:  0.000D+00
 Coeff-En:   0.000D+00 0.000D+00 0.000D+00 0.437D+00 0.000D+00 0.000D+00
 Coeff-En:   0.000D+00 0.000D+00 0.000D+00 0.000D+00 0.000D+00 0.000D+00
 Coeff-En:   0.000D+00 0.000D+00 0.000D+00 0.563D+00
 Coeff:      0.000D+00 0.000D+00 0.000D+00 0.437D+00 0.000D+00 0.000D+00
 Coeff:      0.000D+00 0.000D+00 0.000D+00 0.000D+00 0.000D+00 0.000D+00
 Coeff:      0.000D+00 0.000D+00 0.000D+00 0.563D+00
 Gap=     0.042 Goal=   None    Shift=    0.000
 RMSDP=4.39D-07 MaxDP=3.61D-06 DE=-1.16D-05 OVMax= 4.96D-06

 Cycle  34  Pass 1  IDiag  1:
 E= -75.7686192876269     Delta-E=        0.000006159169 Rises=F Damp=F
 DIIS: error= 5.34D-02 at cycle  21 NSaved=  17.
 NSaved=17 IEnMin= 2 EnMin= -75.7762101092731     IErMin= 2 ErrMin= 4.96D-02
 ErrMax= 5.34D-02  0.00D+00 EMaxC= 1.00D-01 BMatC= 8.42D-02 BMatP= 7.37D-02
 IDIUse=2 WtCom= 0.00D+00 WtEn= 1.00D+00
 Coeff-En:   0.000D+00 0.000D+00 0.000D+00 0.437D+00 0.000D+00 0.000D+00
 Coeff-En:   0.000D+00 0.000D+00 0.000D+00 0.000D+00 0.000D+00 0.000D+00
 Coeff-En:   0.000D+00 0.000D+00 0.000D+00 0.000D+00 0.563D+00
 Coeff:      0.000D+00 0.000D+00 0.000D+00 0.437D+00 0.000D+00 0.000D+00
 Coeff:      0.000D+00 0.000D+00 0.000D+00 0.000D+00 0.000D+00 0.000D+00
 Coeff:      0.000D+00 0.000D+00 0.000D+00 0.000D+00 0.563D+00
 Gap=     0.042 Goal=   None    Shift=    0.000
 RMSDP=2.33D-07 MaxDP=1.91D-06 DE= 6.16D-06 OVMax= 2.63D-06

 Cycle  35  Pass 1  IDiag  1:
 E= -75.7686225542949     Delta-E=       -0.000003266668 Rises=F Damp=F
 DIIS: error= 5.34D-02 at cycle  22 NSaved=  18.
 NSaved=18 IEnMin= 2 EnMin= -75.7762101092731     IErMin= 2 ErrMin= 4.96D-02
 ErrMax= 5.34D-02  0.00D+00 EMaxC= 1.00D-01 BMatC= 8.42D-02 BMatP= 7.37D-02
 IDIUse=2 WtCom= 0.00D+00 WtEn= 1.00D+00
 Rare condition: small coef for last iteration:  0.000D+00
 Coeff-En:   0.000D+00 0.000D+00 0.000D+00 0.437D+00 0.000D+00 0.000D+00
 Coeff-En:   0.000D+00 0.000D+00 0.000D+00 0.000D+00 0.000D+00 0.000D+00
 Coeff-En:   0.000D+00 0.000D+00 0.000D+00 0.000D+00 0.000D+00 0.563D+00
 Coeff:      0.000D+00 0.000D+00 0.000D+00 0.437D+00 0.000D+00 0.000D+00
 Coeff:      0.000D+00 0.000D+00 0.000D+00 0.000D+00 0.000D+00 0.000D+00
 Coeff:      0.000D+00 0.000D+00 0.000D+00 0.000D+00 0.000D+00 0.563D+00
 Gap=     0.042 Goal=   None    Shift=    0.000
 RMSDP=1.23D-07 MaxDP=1.01D-06 DE=-3.27D-06 OVMax= 1.39D-06

 Cycle  36  Pass 1  IDiag  1:
 E= -75.7686208232118     Delta-E=        0.000001731083 Rises=F Damp=F
 DIIS: error= 5.34D-02 at cycle  23 NSaved=  19.
 NSaved=19 IEnMin= 2 EnMin= -75.7762101092731     IErMin= 2 ErrMin= 4.96D-02
 ErrMax= 5.34D-02  0.00D+00 EMaxC= 1.00D-01 BMatC= 8.42D-02 BMatP= 7.37D-02
 IDIUse=2 WtCom= 0.00D+00 WtEn= 1.00D+00
 Coeff-En:   0.000D+00 0.000D+00 0.000D+00 0.437D+00 0.000D+00 0.000D+00
 Coeff-En:   0.000D+00 0.000D+00 0.000D+00 0.000D+00 0.000D+00 0.000D+00
 Coeff-En:   0.000D+00 0.000D+00 0.000D+00 0.000D+00 0.000D+00 0.000D+00
 Coeff-En:   0.563D+00
 Coeff:      0.000D+00 0.000D+00 0.000D+00 0.437D+00 0.000D+00 0.000D+00
 Coeff:      0.000D+00 0.000D+00 0.000D+00 0.000D+00 0.000D+00 0.000D+00
 Coeff:      0.000D+00 0.000D+00 0.000D+00 0.000D+00 0.000D+00 0.000D+00
 Coeff:      0.563D+00
 Gap=     0.042 Goal=   None    Shift=    0.000
 RMSDP=6.54D-08 MaxDP=5.37D-07 DE= 1.73D-06 OVMax= 7.38D-07

 Cycle  37  Pass 1  IDiag  1:
 E= -75.7686217410944     Delta-E=       -0.000000917883 Rises=F Damp=F
 DIIS: error= 5.34D-02 at cycle  24 NSaved=  20.
 NSaved=20 IEnMin= 2 EnMin= -75.7762101092731     IErMin= 2 ErrMin= 4.96D-02
 ErrMax= 5.34D-02  0.00D+00 EMaxC= 1.00D-01 BMatC= 8.42D-02 BMatP= 7.37D-02
 IDIUse=2 WtCom= 0.00D+00 WtEn= 1.00D+00
 Rare condition: small coef for last iteration:  0.000D+00
 Coeff-En:   0.000D+00 0.000D+00 0.000D+00 0.437D+00 0.000D+00 0.000D+00
 Coeff-En:   0.000D+00 0.000D+00 0.000D+00 0.000D+00 0.000D+00 0.000D+00
 Coeff-En:   0.000D+00 0.000D+00 0.000D+00 0.000D+00 0.000D+00 0.000D+00
 Coeff-En:   0.000D+00 0.563D+00
 Coeff:      0.000D+00 0.000D+00 0.000D+00 0.437D+00 0.000D+00 0.000D+00
 Coeff:      0.000D+00 0.000D+00 0.000D+00 0.000D+00 0.000D+00 0.000D+00
 Coeff:      0.000D+00 0.000D+00 0.000D+00 0.000D+00 0.000D+00 0.000D+00
 Coeff:      0.000D+00 0.563D+00
 Gap=     0.042 Goal=   None    Shift=    0.000
 RMSDP=3.47D-08 MaxDP=2.85D-07 DE=-9.18D-07 OVMax= 3.91D-07

 Cycle  38  Pass 1  IDiag  1:
 E= -75.7686212546000     Delta-E=        0.000000486494 Rises=F Damp=F
 DIIS: error= 5.34D-02 at cycle  25 NSaved=  20.
 NSaved=20 IEnMin= 2 EnMin= -75.7762101092731     IErMin= 2 ErrMin= 4.96D-02
 ErrMax= 5.34D-02  0.00D+00 EMaxC= 1.00D-01 BMatC= 8.42D-02 BMatP= 7.37D-02
 IDIUse=2 WtCom= 0.00D+00 WtEn= 1.00D+00
 Coeff-En:   0.000D+00 0.000D+00 0.000D+00 0.437D+00 0.000D+00 0.000D+00
 Coeff-En:   0.000D+00 0.000D+00 0.000D+00 0.000D+00 0.000D+00 0.000D+00
 Coeff-En:   0.000D+00 0.000D+00 0.000D+00 0.000D+00 0.000D+00 0.000D+00
 Coeff-En:   0.000D+00 0.563D+00
 Coeff:      0.000D+00 0.000D+00 0.000D+00 0.437D+00 0.000D+00 0.000D+00
 Coeff:      0.000D+00 0.000D+00 0.000D+00 0.000D+00 0.000D+00 0.000D+00
 Coeff:      0.000D+00 0.000D+00 0.000D+00 0.000D+00 0.000D+00 0.000D+00
 Coeff:      0.000D+00 0.563D+00
 Gap=     0.042 Goal=   None    Shift=    0.000
 RMSDP=1.84D-08 MaxDP=1.51D-07 DE= 4.86D-07 OVMax= 2.07D-07

 Cycle  39  Pass 1  IDiag  1:
 E= -75.7686215125250     Delta-E=       -0.000000257925 Rises=F Damp=F
 DIIS: error= 5.34D-02 at cycle  26 NSaved=  20.
 NSaved=20 IEnMin= 2 EnMin= -75.7762101092731     IErMin= 2 ErrMin= 4.96D-02
 ErrMax= 5.34D-02  0.00D+00 EMaxC= 1.00D-01 BMatC= 8.42D-02 BMatP= 7.37D-02
 IDIUse=2 WtCom= 0.00D+00 WtEn= 1.00D+00
 Rare condition: small coef for last iteration:  0.000D+00
 Coeff-En:   0.000D+00 0.000D+00 0.437D+00 0.000D+00 0.000D+00 0.000D+00
 Coeff-En:   0.000D+00 0.000D+00 0.000D+00 0.000D+00 0.000D+00 0.000D+00
 Coeff-En:   0.000D+00 0.000D+00 0.000D+00 0.000D+00 0.000D+00 0.000D+00
 Coeff-En:   0.000D+00 0.563D+00
 Coeff:      0.000D+00 0.000D+00 0.437D+00 0.000D+00 0.000D+00 0.000D+00
 Coeff:      0.000D+00 0.000D+00 0.000D+00 0.000D+00 0.000D+00 0.000D+00
 Coeff:      0.000D+00 0.000D+00 0.000D+00 0.000D+00 0.000D+00 0.000D+00
 Coeff:      0.000D+00 0.563D+00
 Gap=     0.042 Goal=   None    Shift=    0.000
 RMSDP=9.74D-09 MaxDP=8.00D-08 DE=-2.58D-07 OVMax= 1.10D-07

 Density matrix is not changing but DIIS error= 5.34D-02 CofLast= 0.00D+00.
 Cycle  40  Pass 1  IDiag  1:
 E= -75.7686213758083     Delta-E=        0.000000136717 Rises=F Damp=F
 DIIS: error= 5.34D-02 at cycle   1 NSaved=   1.
 NSaved= 1 IEnMin= 1 EnMin= -75.7686213758083     IErMin= 1 ErrMin= 5.34D-02
 ErrMax= 5.34D-02  0.00D+00 EMaxC= 1.00D+00 BMatC= 8.42D-02 BMatP= 8.42D-02
 IDIUse=1 WtCom= 1.00D+00 WtEn= 0.00D+00
 Coeff-Com:  0.100D+01
 Coeff:      0.100D+01
 Gap=    -0.570 Goal=   None    Shift=    0.000
 RMSDP=4.40D-02 MaxDP=4.37D-01 DE= 1.37D-07 OVMax= 9.93D-01

 Cycle  41  Pass 1  IDiag  1:
 E= -74.8440800280569     Delta-E=        0.924541347751 Rises=F Damp=F
 DIIS: error= 1.83D-01 at cycle  28 NSaved=   2.
 NSaved= 2 IEnMin= 1 EnMin= -75.7686213758083     IErMin= 1 ErrMin= 5.34D-02
 ErrMax= 1.83D-01  0.00D+00 EMaxC= 1.00D+00 BMatC= 8.56D-01 BMatP= 8.42D-02
 IDIUse=1 WtCom= 1.00D+00 WtEn= 0.00D+00
 Coeff-Com:  0.780D+00 0.220D+00
 Coeff:      0.780D+00 0.220D+00
 Gap=     0.014 Goal=   None    Shift=    0.000
 RMSDP=1.96D-02 MaxDP=1.80D-01 DE= 9.25D-01 OVMax= 1.81D-01

 Cycle  42  Pass 1  IDiag  1:
 E= -75.4603312184998     Delta-E=       -0.616251190443 Rises=F Damp=F
 DIIS: error= 9.35D-02 at cycle  29 NSaved=   3.
 NSaved= 3 IEnMin= 1 EnMin= -75.7686213758083     IErMin= 1 ErrMin= 5.34D-02
 ErrMax= 9.35D-02  0.00D+00 EMaxC= 1.00D+00 BMatC= 2.48D-01 BMatP= 8.42D-02
 IDIUse=1 WtCom= 1.00D+00 WtEn= 0.00D+00
 Coeff-Com:  0.543D+00-0.190D+00 0.647D+00
 Coeff:      0.543D+00-0.190D+00 0.647D+00
 Gap=     0.037 Goal=   None    Shift=    0.000
 RMSDP=3.75D-02 MaxDP=3.13D-01 DE=-6.16D-01 OVMax= 1.00D+00

 Cycle  43  Pass 1  IDiag  1:
 E= -75.7582702142481     Delta-E=       -0.297938995748 Rises=F Damp=F
 DIIS: error= 5.70D-02 at cycle  30 NSaved=   4.
 NSaved= 4 IEnMin= 1 EnMin= -75.7686213758083     IErMin= 1 ErrMin= 5.34D-02
 ErrMax= 5.70D-02  0.00D+00 EMaxC= 1.00D+00 BMatC= 9.47D-02 BMatP= 8.42D-02
 IDIUse=1 WtCom= 1.00D+00 WtEn= 0.00D+00
 Coeff-Com:  0.329D+01-0.172D+00 0.559D+00-0.268D+01
 Coeff:      0.329D+01-0.172D+00 0.559D+00-0.268D+01
 Gap=    -0.020 Goal=   None    Shift=    0.000
 RMSDP=3.72D-02 MaxDP=3.32D-01 DE=-2.98D-01 OVMax= 9.37D-01

 Cycle  44  Pass 1  IDiag  1:
 E= -75.5610878360261     Delta-E=        0.197182378222 Rises=F Damp=F
 DIIS: error= 7.14D-02 at cycle  31 NSaved=   5.
 NSaved= 5 IEnMin= 1 EnMin= -75.7686213758083     IErMin= 1 ErrMin= 5.34D-02
 ErrMax= 7.14D-02  0.00D+00 EMaxC= 1.00D+00 BMatC= 1.49D-01 BMatP= 8.42D-02
 IDIUse=1 WtCom= 1.00D+00 WtEn= 0.00D+00
 Coeff-Com:  0.126D+01 0.106D+00-0.248D+01-0.993D+00 0.310D+01
 Coeff:      0.126D+01 0.106D+00-0.248D+01-0.993D+00 0.310D+01
 Gap=    -0.275 Goal=   None    Shift=    0.000
 RMSDP=3.82D-02 MaxDP=3.42D-01 DE= 1.97D-01 OVMax= 1.00D+00

 Cycle  45  Pass 1  IDiag  1:
 E= -75.5959095182610     Delta-E=       -0.034821682235 Rises=F Damp=F
 DIIS: error= 1.03D-01 at cycle  32 NSaved=   6.
 NSaved= 6 IEnMin= 1 EnMin= -75.7686213758083     IErMin= 1 ErrMin= 5.34D-02
 ErrMax= 1.03D-01  0.00D+00 EMaxC= 1.00D+00 BMatC= 3.00D-01 BMatP= 8.42D-02
 IDIUse=1 WtCom= 1.00D+00 WtEn= 0.00D+00
 Coeff-Com: -0.193D+01 0.660D-01-0.125D+01 0.320D+01 0.160D+01-0.681D+00
 Coeff:     -0.193D+01 0.660D-01-0.125D+01 0.320D+01 0.160D+01-0.681D+00
 Gap=     0.011 Goal=   None    Shift=    0.000
 RMSDP=3.33D-02 MaxDP=2.78D-01 DE=-3.48D-02 OVMax= 8.67D-01

 Cycle  46  Pass 1  IDiag  1:
 E= -75.9084062238267     Delta-E=       -0.312496705566 Rises=F Damp=F
 DIIS: error= 7.35D-02 at cycle  33 NSaved=   7.
 NSaved= 7 IEnMin= 7 EnMin= -75.9084062238267     IErMin= 1 ErrMin= 5.34D-02
 ErrMax= 7.35D-02  0.00D+00 EMaxC= 1.00D+00 BMatC= 8.49D-02 BMatP= 8.42D-02
 IDIUse=1 WtCom= 1.00D+00 WtEn= 0.00D+00
 Coeff-Com: -0.208D+01 0.577D-01-0.105D+01 0.342D+01 0.134D+01-0.725D+00
 Coeff-Com:  0.395D-01
 Coeff:     -0.208D+01 0.577D-01-0.105D+01 0.342D+01 0.134D+01-0.725D+00
 Coeff:      0.395D-01
 Gap=     0.021 Goal=   None    Shift=    0.000
 RMSDP=1.75D-02 MaxDP=1.24D-01 DE=-3.12D-01 OVMax= 4.08D-01

 Cycle  47  Pass 1  IDiag  1:
 E= -75.5622129034530     Delta-E=        0.346193320374 Rises=F Damp=F
 DIIS: error= 6.63D-02 at cycle  34 NSaved=   8.
 NSaved= 8 IEnMin= 7 EnMin= -75.9084062238267     IErMin= 1 ErrMin= 5.34D-02
 ErrMax= 6.63D-02  0.00D+00 EMaxC= 1.00D+00 BMatC= 1.39D-01 BMatP= 8.42D-02
 IDIUse=1 WtCom= 1.00D+00 WtEn= 0.00D+00
 Coeff-Com: -0.219D+01 0.120D+00-0.155D+01 0.354D+01 0.135D+01-0.755D+00
 Coeff-Com: -0.468D-02 0.496D+00
 Coeff:     -0.219D+01 0.120D+00-0.155D+01 0.354D+01 0.135D+01-0.755D+00
 Coeff:     -0.468D-02 0.496D+00
 Gap=     0.025 Goal=   None    Shift=    0.000
 RMSDP=3.71D-02 MaxDP=2.93D-01 DE= 3.46D-01 OVMax= 9.96D-01

 Cycle  48  Pass 1  IDiag  1:
 E= -75.7651083956531     Delta-E=       -0.202895492200 Rises=F Damp=F
 DIIS: error= 5.91D-02 at cycle  35 NSaved=   9.
 NSaved= 9 IEnMin= 7 EnMin= -75.9084062238267     IErMin= 1 ErrMin= 5.34D-02
 ErrMax= 5.91D-02  0.00D+00 EMaxC= 1.00D+00 BMatC= 1.08D-01 BMatP= 8.42D-02
 IDIUse=1 WtCom= 1.00D+00 WtEn= 0.00D+00
 Large coefficients: NSaved=  9 BigCof=   15.29 CofMax=   10.00 Det=-9.31D-06
 Inversion failed.  Reducing to  8 matrices.
 Large coefficients: NSaved=  8 BigCof=   15.49 CofMax=   10.00 Det=-9.31D-06
 Inversion failed.  Reducing to  7 matrices.
 Large coefficients: NSaved=  7 BigCof=   15.11 CofMax=   10.00 Det=-1.34D-05
 Inversion failed.  Reducing to  6 matrices.
 Large coefficients: NSaved=  6 BigCof=   15.24 CofMax=   10.00 Det=-1.35D-05
 Inversion failed.  Reducing to  5 matrices.
 Coeff-Com:  0.534D+01-0.383D+01-0.125D-01 0.298D+00-0.801D+00
 Coeff:      0.534D+01-0.383D+01-0.125D-01 0.298D+00-0.801D+00
 Gap=    -0.116 Goal=   None    Shift=    0.000
 RMSDP=3.73D-02 MaxDP=2.97D-01 DE=-2.03D-01 OVMax= 9.73D-01

 Cycle  49  Pass 1  IDiag  1:
 E= -75.5158924046201     Delta-E=        0.249215991033 Rises=F Damp=F
 DIIS: error= 8.11D-02 at cycle  36 NSaved=   6.
 NSaved= 6 IEnMin= 3 EnMin= -75.9084062238267     IErMin= 1 ErrMin= 5.34D-02
 ErrMax= 8.11D-02  0.00D+00 EMaxC= 1.00D+00 BMatC= 1.92D-01 BMatP= 8.42D-02
 IDIUse=1 WtCom= 1.00D+00 WtEn= 0.00D+00
 Coeff-Com:  0.444D+01-0.310D+01 0.143D+00-0.733D+00-0.607D+00 0.856D+00
 Coeff:      0.444D+01-0.310D+01 0.143D+00-0.733D+00-0.607D+00 0.856D+00
 Gap=     0.018 Goal=   None    Shift=    0.000
 RMSDP=2.58D-03 MaxDP=3.07D-02 DE= 2.49D-01 OVMax= 3.50D-02

 Cycle  50  Pass 1  IDiag  1:
 E= -75.4767138797330     Delta-E=        0.039178524887 Rises=F Damp=F
 DIIS: error= 8.76D-02 at cycle  37 NSaved=   7.
 NSaved= 7 IEnMin= 3 EnMin= -75.9084062238267     IErMin= 1 ErrMin= 5.34D-02
 ErrMax= 8.76D-02  0.00D+00 EMaxC= 1.00D+00 BMatC= 2.26D-01 BMatP= 8.42D-02
 IDIUse=1 WtCom= 1.00D+00 WtEn= 0.00D+00
 Coeff-Com:  0.210D+01-0.142D+01 0.225D+00-0.259D+00-0.210D+00 0.313D+01
 Coeff-Com: -0.257D+01
 Coeff:      0.210D+01-0.142D+01 0.225D+00-0.259D+00-0.210D+00 0.313D+01
 Coeff:     -0.257D+01
 Gap=     0.036 Goal=   None    Shift=    0.000
 RMSDP=3.76D-02 MaxDP=3.22D-01 DE= 3.92D-02 OVMax= 9.75D-01

 Cycle  51  Pass 1  IDiag  1:
 E= -75.7382989523142     Delta-E=       -0.261585072581 Rises=F Damp=F
 DIIS: error= 6.54D-02 at cycle  38 NSaved=   8.
 NSaved= 8 IEnMin= 3 EnMin= -75.9084062238267     IErMin= 1 ErrMin= 5.34D-02
 ErrMax= 6.54D-02  0.00D+00 EMaxC= 1.00D+00 BMatC= 1.24D-01 BMatP= 8.42D-02
 IDIUse=1 WtCom= 1.00D+00 WtEn= 0.00D+00
 Coeff-Com: -0.139D+01 0.349D+01 0.199D+00-0.359D+00 0.110D+01 0.249D+01
 Coeff-Com: -0.190D+01-0.264D+01
 Coeff:     -0.139D+01 0.349D+01 0.199D+00-0.359D+00 0.110D+01 0.249D+01
 Coeff:     -0.190D+01-0.264D+01
 Gap=    -0.022 Goal=   None    Shift=    0.000
 RMSDP=3.70D-02 MaxDP=3.33D-01 DE=-2.62D-01 OVMax= 9.43D-01

 Cycle  52  Pass 1  IDiag  1:
 E= -75.5778487407090     Delta-E=        0.160450211605 Rises=F Damp=F
 DIIS: error= 6.44D-02 at cycle  39 NSaved=   9.
 NSaved= 9 IEnMin= 3 EnMin= -75.9084062238267     IErMin= 1 ErrMin= 5.34D-02
 ErrMax= 6.44D-02  0.00D+00 EMaxC= 1.00D+00 BMatC= 1.41D-01 BMatP= 8.42D-02
 IDIUse=1 WtCom= 1.00D+00 WtEn= 0.00D+00
 Coeff-Com: -0.342D+00 0.182D+01 0.447D+00 0.124D+01 0.116D+00 0.363D+01
 Coeff-Com: -0.349D+01-0.126D+01-0.116D+01
 Coeff:     -0.342D+00 0.182D+01 0.447D+00 0.124D+01 0.116D+00 0.363D+01
 Coeff:     -0.349D+01-0.126D+01-0.116D+01
 Gap=    -0.131 Goal=   None    Shift=    0.000
 RMSDP=3.72D-02 MaxDP=3.48D-01 DE= 1.60D-01 OVMax= 9.67D-01

 Cycle  53  Pass 1  IDiag  1:
 E= -75.6979363323435     Delta-E=       -0.120087591635 Rises=F Damp=F
 DIIS: error= 7.64D-02 at cycle  40 NSaved=  10.
 NSaved=10 IEnMin= 3 EnMin= -75.9084062238267     IErMin= 1 ErrMin= 5.34D-02
 ErrMax= 7.64D-02  0.00D+00 EMaxC= 1.00D+00 BMatC= 1.69D-01 BMatP= 8.42D-02
 IDIUse=1 WtCom= 1.00D+00 WtEn= 0.00D+00
 Coeff-Com:  0.192D+00 0.130D+01 0.453D+00 0.129D+01 0.166D+00 0.370D+01
 Coeff-Com: -0.356D+01-0.159D+01-0.122D+01 0.259D+00
 Coeff:      0.192D+00 0.130D+01 0.453D+00 0.129D+01 0.166D+00 0.370D+01
 Coeff:     -0.356D+01-0.159D+01-0.122D+01 0.259D+00
 Gap=     0.163 Goal=   None    Shift=    0.000
 RMSDP=1.79D-04 MaxDP=1.40D-03 DE=-1.20D-01 OVMax= 1.86D-03

 Cycle  54  Pass 1  IDiag  1:
 E= -75.6944046034752     Delta-E=        0.003531728868 Rises=F Damp=F
 DIIS: error= 7.74D-02 at cycle  41 NSaved=  11.
 NSaved=11 IEnMin= 3 EnMin= -75.9084062238267     IErMin= 1 ErrMin= 5.34D-02
 ErrMax= 7.74D-02  0.00D+00 EMaxC= 1.00D+00 BMatC= 1.74D-01 BMatP= 8.42D-02
 IDIUse=1 WtCom= 1.00D+00 WtEn= 0.00D+00
 Large coefficients: NSaved= 11 BigCof=   41.18 CofMax=   10.00 Det=-7.82D-07
 Inversion failed.  Reducing to 10 matrices.
 Large coefficients: NSaved= 10 BigCof=   47.91 CofMax=   10.00 Det=-1.46D-06
 Inversion failed.  Reducing to  9 matrices.
 Large coefficients: NSaved=  9 BigCof=   48.52 CofMax=   10.00 Det=-1.47D-06
 Inversion failed.  Reducing to  8 matrices.
 Large coefficients: NSaved=  8 BigCof=   48.49 CofMax=   10.00 Det=-1.58D-06
 Inversion failed.  Reducing to  7 matrices.
 Large coefficients: NSaved=  7 BigCof=   44.46 CofMax=   10.00 Det=-2.04D-06
 Inversion failed.  Reducing to  6 matrices.
 Large coefficients: NSaved=  6 BigCof=   39.39 CofMax=   10.00 Det=-2.22D-06
 Inversion failed.  Reducing to  5 matrices.
 Large coefficients: NSaved=  5 BigCof=   45.96 CofMax=   10.00 Det=-2.51D-06
 Inversion failed.  Reducing to  4 matrices.
 Large coefficients: NSaved=  4 BigCof=   41.91 CofMax=   10.00 Det=-2.78D-06
 Inversion failed.  Reducing to  3 matrices.
 Large coefficients: NSaved=  3 BigCof=   42.46 CofMax=   10.00 Det=-1.14D-05
 Inversion failed.  Reducing to  2 matrices.
 Large coefficients: NSaved=  2 BigCof=   70.53 CofMax=   10.00 Det=-3.12D-05
 Coeff-Com:  0.705D+02-0.695D+02
 Coeff:      0.705D+02-0.695D+02
 Gap=    -0.546 Goal=   None    Shift=    0.000
 RMSDP=4.32D-02 MaxDP=6.35D-01 DE= 3.53D-03 OVMax= 9.79D-01

 Cycle  55  Pass 1  IDiag  1:
 E= -75.0808870944901     Delta-E=        0.613517508985 Rises=F Damp=F
 DIIS: error= 1.12D-01 at cycle  42 NSaved=   3.
 NSaved= 3 IEnMin= 1 EnMin= -75.6979363323435     IErMin= 1 ErrMin= 7.64D-02
 ErrMax= 1.12D-01  0.00D+00 EMaxC= 1.00D+00 BMatC= 5.18D-01 BMatP= 1.69D-01
 IDIUse=1 WtCom= 1.00D+00 WtEn= 0.00D+00
 Large coefficients: NSaved=  3 BigCof=   49.01 CofMax=   10.00 Det=-9.68D-06
 Inversion failed.  Reducing to  2 matrices.
 Coeff-Com:  0.651D+00 0.349D+00
 Coeff:      0.651D+00 0.349D+00
 Gap=     0.027 Goal=   None    Shift=    0.000
 RMSDP=2.58D-02 MaxDP=4.30D-01 DE= 6.14D-01 OVMax= 3.89D-01

 Cycle  56  Pass 1  IDiag  1:
 E= -75.6781244270241     Delta-E=       -0.597237332534 Rises=F Damp=F
 DIIS: error= 6.70D-02 at cycle  43 NSaved=   3.
 NSaved= 3 IEnMin= 1 EnMin= -75.6944046034752     IErMin= 3 ErrMin= 6.70D-02
 ErrMax= 6.70D-02  0.00D+00 EMaxC= 1.00D+00 BMatC= 1.97D-01 BMatP= 1.74D-01
 IDIUse=1 WtCom= 1.00D+00 WtEn= 0.00D+00
 Coeff-Com:  0.535D+00 0.777D-01 0.387D+00
 Coeff:      0.535D+00 0.777D-01 0.387D+00
 Gap=    -0.031 Goal=   None    Shift=    0.000
 RMSDP=3.44D-02 MaxDP=3.37D-01 DE=-5.97D-01 OVMax= 9.17D-01

 Cycle  57  Pass 1  IDiag  1:
 E= -75.7851604289806     Delta-E=       -0.107036001956 Rises=F Damp=F
 DIIS: error= 5.11D-02 at cycle  44 NSaved=   4.
 NSaved= 4 IEnMin= 4 EnMin= -75.7851604289806     IErMin= 4 ErrMin= 5.11D-02
 ErrMax= 5.11D-02  0.00D+00 EMaxC= 1.00D+00 BMatC= 7.95D-02 BMatP= 1.74D-01
 IDIUse=1 WtCom= 1.00D+00 WtEn= 0.00D+00
 Coeff-Com: -0.637D+00-0.842D-01 0.394D+00 0.133D+01
 Coeff:     -0.637D+00-0.842D-01 0.394D+00 0.133D+01
 Gap=    -0.156 Goal=   None    Shift=    0.000
 RMSDP=3.67D-02 MaxDP=3.43D-01 DE=-1.07D-01 OVMax= 8.87D-01

 Cycle  58  Pass 1  IDiag  1:
 E= -75.5057821314756     Delta-E=        0.279378297505 Rises=F Damp=F
 DIIS: error= 6.97D-02 at cycle  45 NSaved=   5.
 NSaved= 5 IEnMin= 4 EnMin= -75.7851604289806     IErMin= 4 ErrMin= 5.11D-02
 ErrMax= 6.97D-02  0.00D+00 EMaxC= 1.00D+00 BMatC= 1.95D-01 BMatP= 7.95D-02
 IDIUse=1 WtCom= 1.00D+00 WtEn= 0.00D+00
 Coeff-Com: -0.648D+00-0.706D-01 0.408D+00 0.134D+01-0.345D-01
 Coeff:     -0.648D+00-0.706D-01 0.408D+00 0.134D+01-0.345D-01
 Gap=     0.023 Goal=   None    Shift=    0.000
 RMSDP=3.32D-04 MaxDP=3.28D-03 DE= 2.79D-01 OVMax= 5.56D-03

 Cycle  59  Pass 1  IDiag  1:
 E= -75.5004852298135     Delta-E=        0.005296901662 Rises=F Damp=F
 DIIS: error= 7.06D-02 at cycle  46 NSaved=   6.
 NSaved= 6 IEnMin= 4 EnMin= -75.7851604289806     IErMin= 4 ErrMin= 5.11D-02
 ErrMax= 7.06D-02  0.00D+00 EMaxC= 1.00D+00 BMatC= 1.99D-01 BMatP= 7.95D-02
 IDIUse=1 WtCom= 1.00D+00 WtEn= 0.00D+00
 Large coefficients: NSaved=  6 BigCof=   11.39 CofMax=   10.00 Det=-4.76D-06
 Inversion failed.  Reducing to  5 matrices.
 Large coefficients: NSaved=  5 BigCof=   10.94 CofMax=   10.00 Det=-5.96D-06
 Inversion failed.  Reducing to  4 matrices.
 Large coefficients: NSaved=  4 BigCof=   23.24 CofMax=   10.00 Det=-1.15D-05
 Inversion failed.  Reducing to  3 matrices.
 Large coefficients: NSaved=  3 BigCof=   15.30 CofMax=   10.00 Det=-1.38D-05
 Inversion failed.  Reducing to  2 matrices.
 Large coefficients: NSaved=  2 BigCof=   63.32 CofMax=   10.00 Det=-3.41D-05
 Coeff-Com:  0.633D+02-0.623D+02
 Coeff:      0.633D+02-0.623D+02
 Gap=     0.083 Goal=   None    Shift=    0.000
 RMSDP=4.13D-02 MaxDP=4.72D-01 DE= 5.30D-03 OVMax= 9.53D-01

 Cycle  60  Pass 1  IDiag  1:
 E= -75.2963022371750     Delta-E=        0.204182992638 Rises=F Damp=F
 DIIS: error= 1.59D-01 at cycle  47 NSaved=   3.
 NSaved= 3 IEnMin= 1 EnMin= -75.5057821314756     IErMin= 1 ErrMin= 6.97D-02
 ErrMax= 1.59D-01  0.00D+00 EMaxC= 1.00D+00 BMatC= 6.78D-01 BMatP= 1.95D-01
 IDIUse=1 WtCom= 1.00D+00 WtEn= 0.00D+00
 Large coefficients: NSaved=  3 BigCof=   26.05 CofMax=   10.00 Det=-1.47D-05
 Inversion failed.  Reducing to  2 matrices.
 Coeff-Com:  0.665D+00 0.335D+00
 Coeff:      0.665D+00 0.335D+00
 Gap=     0.349 Goal=   None    Shift=    0.000
 RMSDP=1.03D-02 MaxDP=9.25D-02 DE= 2.04D-01 OVMax= 1.00D-01

 Cycle  61  Pass 1  IDiag  1:
 E= -75.6594114990639     Delta-E=       -0.363109261889 Rises=F Damp=F
 DIIS: error= 8.93D-02 at cycle  48 NSaved=   3.
 NSaved= 3 IEnMin= 3 EnMin= -75.6594114990639     IErMin= 1 ErrMin= 7.06D-02
 ErrMax= 8.93D-02  0.00D+00 EMaxC= 1.00D+00 BMatC= 2.17D-01 BMatP= 1.99D-01
 IDIUse=1 WtCom= 1.00D+00 WtEn= 0.00D+00
 Coeff-Com:  0.193D+00-0.831D+00 0.164D+01
 Coeff:      0.193D+00-0.831D+00 0.164D+01
 Gap=    -0.123 Goal=   None    Shift=    0.000
 RMSDP=3.83D-02 MaxDP=3.90D-01 DE=-3.63D-01 OVMax= 9.44D-01

 Cycle  62  Pass 1  IDiag  1:
 E= -75.4874639772622     Delta-E=        0.171947521802 Rises=F Damp=F
 DIIS: error= 8.18D-02 at cycle  49 NSaved=   4.
 NSaved= 4 IEnMin= 3 EnMin= -75.6594114990639     IErMin= 1 ErrMin= 7.06D-02
 ErrMax= 8.18D-02  0.00D+00 EMaxC= 1.00D+00 BMatC= 2.26D-01 BMatP= 1.99D-01
 IDIUse=1 WtCom= 1.00D+00 WtEn= 0.00D+00
 Coeff-Com: -0.288D+00-0.786D+00 0.159D+01 0.479D+00
 Coeff:     -0.288D+00-0.786D+00 0.159D+01 0.479D+00
 Gap=     0.017 Goal=   None    Shift=    0.000
 RMSDP=2.95D-03 MaxDP=2.44D-02 DE= 1.72D-01 OVMax= 7.35D-02

 Cycle  63  Pass 1  IDiag  1:
 E= -75.4853511497456     Delta-E=        0.002112827517 Rises=F Damp=F
 DIIS: error= 8.08D-02 at cycle  50 NSaved=   5.
 NSaved= 5 IEnMin= 3 EnMin= -75.6594114990639     IErMin= 1 ErrMin= 7.06D-02
 ErrMax= 8.08D-02  0.00D+00 EMaxC= 1.00D+00 BMatC= 2.24D-01 BMatP= 1.99D-01
 IDIUse=1 WtCom= 1.00D+00 WtEn= 0.00D+00
 Coeff-Com: -0.290D+00-0.785D+00 0.159D+01 0.556D+00-0.746D-01
 Coeff:     -0.290D+00-0.785D+00 0.159D+01 0.556D+00-0.746D-01
 Gap=     0.017 Goal=   None    Shift=    0.000
 RMSDP=1.01D-03 MaxDP=8.49D-03 DE= 2.11D-03 OVMax= 2.59D-02

 Cycle  64  Pass 1  IDiag  1:
 E= -75.4852390539004     Delta-E=        0.000112095845 Rises=F Damp=F
 DIIS: error= 8.07D-02 at cycle  51 NSaved=   6.
 NSaved= 6 IEnMin= 3 EnMin= -75.6594114990639     IErMin= 1 ErrMin= 7.06D-02
 ErrMax= 8.07D-02  0.00D+00 EMaxC= 1.00D+00 BMatC= 2.25D-01 BMatP= 1.99D-01
 IDIUse=1 WtCom= 1.00D+00 WtEn= 0.00D+00
 Coeff-Com: -0.103D+00-0.739D+00 0.153D+01 0.327D+01 0.637D+01-0.934D+01
 Coeff:     -0.103D+00-0.739D+00 0.153D+01 0.327D+01 0.637D+01-0.934D+01
 Gap=     0.016 Goal=   None    Shift=    0.000
 RMSDP=4.36D-03 MaxDP=3.66D-02 DE= 1.12D-04 OVMax= 1.11D-01

 Cycle  65  Pass 1  IDiag  1:
 E= -75.4941808515944     Delta-E=       -0.008941797694 Rises=F Damp=F
 DIIS: error= 7.87D-02 at cycle  52 NSaved=   7.
 NSaved= 7 IEnMin= 3 EnMin= -75.6594114990639     IErMin= 1 ErrMin= 7.06D-02
 ErrMax= 7.87D-02  0.00D+00 EMaxC= 1.00D+00 BMatC= 2.14D-01 BMatP= 1.99D-01
 IDIUse=1 WtCom= 1.00D+00 WtEn= 0.00D+00
 Coeff-Com: -0.477D+00-0.611D+00 0.132D+01 0.462D+01-0.693D+01-0.486D+00
 Coeff-Com:  0.355D+01
 Coeff:     -0.477D+00-0.611D+00 0.132D+01 0.462D+01-0.693D+01-0.486D+00
 Coeff:      0.355D+01
 Gap=     0.018 Goal=   None    Shift=    0.000
 RMSDP=2.75D-03 MaxDP=1.99D-02 DE=-8.94D-03 OVMax= 4.59D-02

 Cycle  66  Pass 1  IDiag  1:
 E= -75.5372525473081     Delta-E=       -0.043071695714 Rises=F Damp=F
 DIIS: error= 7.23D-02 at cycle  53 NSaved=   8.
 NSaved= 8 IEnMin= 3 EnMin= -75.6594114990639     IErMin= 1 ErrMin= 7.06D-02
 ErrMax= 7.23D-02  0.00D+00 EMaxC= 1.00D+00 BMatC= 1.72D-01 BMatP= 1.99D-01
 IDIUse=1 WtCom= 1.00D+00 WtEn= 0.00D+00
 Large coefficients: NSaved=  8 BigCof=   25.85 CofMax=   10.00 Det=-1.57D-06
 Inversion failed.  Reducing to  7 matrices.
 Large coefficients: NSaved=  7 BigCof=   38.57 CofMax=   10.00 Det=-3.18D-06
 Inversion failed.  Reducing to  6 matrices.
 Large coefficients: NSaved=  6 BigCof=   10.02 CofMax=   10.00 Det=-2.40D-05
 Inversion failed.  Reducing to  5 matrices.
 Coeff-Com: -0.459D+00 0.310D+00 0.151D+01-0.460D+01 0.423D+01
 Coeff:     -0.459D+00 0.310D+00 0.151D+01-0.460D+01 0.423D+01
 Gap=     0.051 Goal=   None    Shift=    0.000
 RMSDP=3.81D-02 MaxDP=3.80D-01 DE=-4.31D-02 OVMax= 9.99D-01

 Cycle  67  Pass 1  IDiag  1:
 E= -75.6333142155434     Delta-E=       -0.096061668235 Rises=F Damp=F
 DIIS: error= 9.47D-02 at cycle  54 NSaved=   6.
 NSaved= 6 IEnMin= 2 EnMin= -75.6594114990639     IErMin= 1 ErrMin= 7.06D-02
 ErrMax= 9.47D-02  0.00D+00 EMaxC= 1.00D+00 BMatC= 2.52D-01 BMatP= 1.72D-01
 IDIUse=1 WtCom= 1.00D+00 WtEn= 0.00D+00
 Coeff-Com: -0.490D+00-0.219D+00 0.158D+01-0.498D+01 0.461D+01 0.493D+00
 Coeff:     -0.490D+00-0.219D+00 0.158D+01-0.498D+01 0.461D+01 0.493D+00
 Gap=     0.338 Goal=   None    Shift=    0.000
 RMSDP=7.14D-04 MaxDP=6.17D-03 DE=-9.61D-02 OVMax= 7.01D-03

 Cycle  68  Pass 1  IDiag  1:
 E= -75.6138327692071     Delta-E=        0.019481446336 Rises=F Damp=F
 DIIS: error= 9.92D-02 at cycle  55 NSaved=   7.
 NSaved= 7 IEnMin= 2 EnMin= -75.6594114990639     IErMin= 1 ErrMin= 7.06D-02
 ErrMax= 9.92D-02  0.00D+00 EMaxC= 1.00D+00 BMatC= 2.77D-01 BMatP= 1.72D-01
 IDIUse=1 WtCom= 1.00D+00 WtEn= 0.00D+00
 Large coefficients: NSaved=  7 BigCof=   11.96 CofMax=   10.00 Det=-4.11D-05
 Inversion failed.  Reducing to  6 matrices.
 Large coefficients: NSaved=  6 BigCof=   13.80 CofMax=   10.00 Det=-4.82D-05
 Inversion failed.  Reducing to  5 matrices.
 Large coefficients: NSaved=  5 BigCof=   14.01 CofMax=   10.00 Det=-5.25D-05
 Inversion failed.  Reducing to  4 matrices.
 Large coefficients: NSaved=  4 BigCof=   13.59 CofMax=   10.00 Det=-5.33D-05
 Inversion failed.  Reducing to  3 matrices.
 Large coefficients: NSaved=  3 BigCof=   17.51 CofMax=   10.00 Det=-1.18D-04
 Inversion failed.  Reducing to  2 matrices.
 Large coefficients: NSaved=  2 BigCof=   21.10 CofMax=   10.00 Det=-6.03D-04
 Coeff-Com:  0.211D+02-0.201D+02
 Coeff:      0.211D+02-0.201D+02
 Gap=    -0.393 Goal=   None    Shift=    0.000
 RMSDP=4.21D-02 MaxDP=5.24D-01 DE= 1.95D-02 OVMax= 9.99D-01

 Cycle  69  Pass 1  IDiag  1:
 E= -75.2089936894556     Delta-E=        0.404839079752 Rises=F Damp=F
 DIIS: error= 1.06D-01 at cycle  56 NSaved=   3.
 NSaved= 3 IEnMin= 1 EnMin= -75.6333142155434     IErMin= 1 ErrMin= 9.47D-02
 ErrMax= 1.06D-01  0.00D+00 EMaxC= 1.00D+00 BMatC= 4.37D-01 BMatP= 2.52D-01
 IDIUse=1 WtCom= 1.00D+00 WtEn= 0.00D+00
 Large coefficients: NSaved=  3 BigCof=   17.21 CofMax=   10.00 Det=-1.10D-04
 Inversion failed.  Reducing to  2 matrices.
 Coeff-Com:  0.564D+00 0.436D+00
 Coeff:      0.564D+00 0.436D+00
 Gap=     0.034 Goal=   None    Shift=    0.000
 RMSDP=3.99D-02 MaxDP=5.24D-01 DE= 4.05D-01 OVMax= 9.99D-01

 Cycle  70  Pass 1  IDiag  1:
 E= -75.7721505608878     Delta-E=       -0.563156871432 Rises=F Damp=F
 DIIS: error= 5.15D-02 at cycle  57 NSaved=   3.
 NSaved= 3 IEnMin= 3 EnMin= -75.7721505608878     IErMin= 3 ErrMin= 5.15D-02
 ErrMax= 5.15D-02  0.00D+00 EMaxC= 1.00D+00 BMatC= 7.42D-02 BMatP= 2.77D-01
 IDIUse=1 WtCom= 1.00D+00 WtEn= 0.00D+00
 Coeff-Com: -0.853D+00 0.592D-01 0.179D+01
 Coeff:     -0.853D+00 0.592D-01 0.179D+01
 Gap=    -0.360 Goal=   None    Shift=    0.000
 RMSDP=3.84D-02 MaxDP=4.35D-01 DE=-5.63D-01 OVMax= 9.97D-01

 Cycle  71  Pass 1  IDiag  1:
 E= -75.3233415183907     Delta-E=        0.448809042497 Rises=F Damp=F
 DIIS: error= 9.78D-02 at cycle  58 NSaved=   4.
 NSaved= 4 IEnMin= 3 EnMin= -75.7721505608878     IErMin= 3 ErrMin= 5.15D-02
 ErrMax= 9.78D-02  0.00D+00 EMaxC= 1.00D+00 BMatC= 3.54D-01 BMatP= 7.42D-02
 IDIUse=1 WtCom= 1.00D+00 WtEn= 0.00D+00
 Coeff-Com: -0.796D+00-0.155D+00 0.171D+01 0.245D+00
 Coeff:     -0.796D+00-0.155D+00 0.171D+01 0.245D+00
 Gap=     0.008 Goal=   None    Shift=    0.000
 RMSDP=1.56D-03 MaxDP=1.37D-02 DE= 4.49D-01 OVMax= 2.80D-02

 Cycle  72  Pass 1  IDiag  1:
 E= -75.3517547380413     Delta-E=       -0.028413219651 Rises=F Damp=F
 DIIS: error= 9.37D-02 at cycle  59 NSaved=   5.
 NSaved= 5 IEnMin= 3 EnMin= -75.7721505608878     IErMin= 3 ErrMin= 5.15D-02
 ErrMax= 9.37D-02  0.00D+00 EMaxC= 1.00D+00 BMatC= 3.28D-01 BMatP= 7.42D-02
 IDIUse=1 WtCom= 1.00D+00 WtEn= 0.00D+00
 Coeff-Com: -0.825D+00-0.146D+00 0.176D+01 0.736D+00-0.521D+00
 Coeff:     -0.825D+00-0.146D+00 0.176D+01 0.736D+00-0.521D+00
 Gap=     0.006 Goal=   None    Shift=    0.000
 RMSDP=6.38D-03 MaxDP=5.26D-02 DE=-2.84D-02 OVMax= 1.63D-01

 Cycle  73  Pass 1  IDiag  1:
 E= -75.3328279917664     Delta-E=        0.018926746275 Rises=F Damp=F
 DIIS: error= 9.63D-02 at cycle  60 NSaved=   6.
 NSaved= 6 IEnMin= 3 EnMin= -75.7721505608878     IErMin= 3 ErrMin= 5.15D-02
 ErrMax= 9.63D-02  0.00D+00 EMaxC= 1.00D+00 BMatC= 3.45D-01 BMatP= 7.42D-02
 IDIUse=1 WtCom= 1.00D+00 WtEn= 0.00D+00
 Coeff-Com: -0.807D+00-0.166D+00 0.172D+01 0.446D+00-0.278D+00 0.811D-01
 Coeff:     -0.807D+00-0.166D+00 0.172D+01 0.446D+00-0.278D+00 0.811D-01
 Gap=     0.008 Goal=   None    Shift=    0.000
 RMSDP=1.13D-03 MaxDP=8.08D-03 DE= 1.89D-02 OVMax= 2.60D-02

 Cycle  74  Pass 1  IDiag  1:
 E= -75.3456442132199     Delta-E=       -0.012816221454 Rises=F Damp=F
 DIIS: error= 9.46D-02 at cycle  61 NSaved=   7.
 NSaved= 7 IEnMin= 3 EnMin= -75.7721505608878     IErMin= 3 ErrMin= 5.15D-02
 ErrMax= 9.46D-02  0.00D+00 EMaxC= 1.00D+00 BMatC= 3.33D-01 BMatP= 7.42D-02
 IDIUse=1 WtCom= 1.00D+00 WtEn= 0.00D+00
 Coeff-Com: -0.786D+00-0.282D-01 0.169D+01 0.117D+01-0.568D+00-0.336D+01
 Coeff-Com:  0.288D+01
 Coeff:     -0.786D+00-0.282D-01 0.169D+01 0.117D+01-0.568D+00-0.336D+01
 Coeff:      0.288D+01
 Gap=     0.008 Goal=   None    Shift=    0.000
 RMSDP=3.16D-03 MaxDP=2.49D-02 DE=-1.28D-02 OVMax= 7.92D-02

 Cycle  75  Pass 1  IDiag  1:
 E= -75.3632027067990     Delta-E=       -0.017558493579 Rises=F Damp=F
 DIIS: error= 9.23D-02 at cycle  62 NSaved=   8.
 NSaved= 8 IEnMin= 3 EnMin= -75.7721505608878     IErMin= 3 ErrMin= 5.15D-02
 ErrMax= 9.23D-02  0.00D+00 EMaxC= 1.00D+00 BMatC= 3.18D-01 BMatP= 7.42D-02
 IDIUse=1 WtCom= 1.00D+00 WtEn= 0.00D+00
 Coeff-Com: -0.680D+00-0.228D+00 0.155D+01 0.183D+01-0.333D+00 0.334D+01
 Coeff-Com: -0.837D+01 0.388D+01
 Coeff:     -0.680D+00-0.228D+00 0.155D+01 0.183D+01-0.333D+00 0.334D+01
 Coeff:     -0.837D+01 0.388D+01
 Gap=     0.002 Goal=   None    Shift=    0.000
 RMSDP=1.73D-02 MaxDP=1.17D-01 DE=-1.76D-02 OVMax= 4.43D-01

 Cycle  76  Pass 1  IDiag  1:
 E= -75.3925484412318     Delta-E=       -0.029345734433 Rises=F Damp=F
 DIIS: error= 9.62D-02 at cycle  63 NSaved=   9.
 NSaved= 9 IEnMin= 3 EnMin= -75.7721505608878     IErMin= 3 ErrMin= 5.15D-02
 ErrMax= 9.62D-02  0.00D+00 EMaxC= 1.00D+00 BMatC= 2.94D-01 BMatP= 7.42D-02
 IDIUse=1 WtCom= 1.00D+00 WtEn= 0.00D+00
 Large coefficients: NSaved=  9 BigCof=   16.37 CofMax=   10.00 Det=-1.06D-06
 Inversion failed.  Reducing to  8 matrices.
 Large coefficients: NSaved=  8 BigCof=   16.37 CofMax=   10.00 Det=-1.06D-06
 Inversion failed.  Reducing to  7 matrices.
 Coeff-Com: -0.727D+00 0.160D+01 0.338D+00-0.486D+00 0.126D-01 0.148D+00
 Coeff-Com:  0.109D+00
 Coeff:     -0.727D+00 0.160D+01 0.338D+00-0.486D+00 0.126D-01 0.148D+00
 Coeff:      0.109D+00
 Gap=     0.003 Goal=   None    Shift=    0.000
 RMSDP=1.49D-02 MaxDP=1.05D-01 DE=-2.93D-02 OVMax= 3.84D-01

 Cycle  77  Pass 1  IDiag  1:
 E= -75.3856774934604     Delta-E=        0.006870947771 Rises=F Damp=F
 DIIS: error= 8.95D-02 at cycle  64 NSaved=   8.
 NSaved= 8 IEnMin= 2 EnMin= -75.7721505608878     IErMin= 2 ErrMin= 5.15D-02
 ErrMax= 8.95D-02  0.00D+00 EMaxC= 1.00D+00 BMatC= 3.00D-01 BMatP= 7.42D-02
 IDIUse=1 WtCom= 1.00D+00 WtEn= 0.00D+00
 Large coefficients: NSaved=  8 BigCof=   38.04 CofMax=   10.00 Det=-6.17D-07
 Inversion failed.  Reducing to  7 matrices.
 Coeff-Com: -0.670D+00 0.150D+01 0.657D+00-0.957D+00-0.123D+01-0.305D-01
 Coeff-Com:  0.173D+01
 Coeff:     -0.670D+00 0.150D+01 0.657D+00-0.957D+00-0.123D+01-0.305D-01
 Coeff:      0.173D+01
 Gap=     0.008 Goal=   None    Shift=    0.000
 RMSDP=1.55D-03 MaxDP=1.83D-02 DE= 6.87D-03 OVMax= 1.27D-02

 Cycle  78  Pass 1  IDiag  1:
 E= -75.4215520155132     Delta-E=       -0.035874522053 Rises=F Damp=F
 DIIS: error= 8.39D-02 at cycle  65 NSaved=   8.
 NSaved= 8 IEnMin= 2 EnMin= -75.7721505608878     IErMin= 2 ErrMin= 5.15D-02
 ErrMax= 8.39D-02  0.00D+00 EMaxC= 1.00D+00 BMatC= 2.67D-01 BMatP= 7.42D-02
 IDIUse=1 WtCom= 1.00D+00 WtEn= 0.00D+00
 Large coefficients: NSaved=  8 BigCof=   11.04 CofMax=   10.00 Det=-1.34D-06
 Inversion failed.  Reducing to  7 matrices.
 Coeff-Com: -0.647D+00 0.145D+01 0.457D+00-0.226D+01 0.869D-02 0.132D+01
 Coeff-Com:  0.669D+00
 Coeff:     -0.647D+00 0.145D+01 0.457D+00-0.226D+01 0.869D-02 0.132D+01
 Coeff:      0.669D+00
 Gap=     0.010 Goal=   None    Shift=    0.000
 RMSDP=1.06D-03 MaxDP=1.05D-02 DE=-3.59D-02 OVMax= 1.73D-02

 Cycle  79  Pass 1  IDiag  1:
 E= -75.4402335569458     Delta-E=       -0.018681541433 Rises=F Damp=F
 DIIS: error= 8.10D-02 at cycle  66 NSaved=   8.
 NSaved= 8 IEnMin= 2 EnMin= -75.7721505608878     IErMin= 2 ErrMin= 5.15D-02
 ErrMax= 8.10D-02  0.00D+00 EMaxC= 1.00D+00 BMatC= 2.51D-01 BMatP= 7.42D-02
 IDIUse=1 WtCom= 1.00D+00 WtEn= 0.00D+00
 Coeff-Com: -0.679D+00 0.147D+01 0.183D+00 0.101D+01 0.151D-02 0.286D+00
 Coeff-Com: -0.897D+01 0.769D+01
 Coeff:     -0.679D+00 0.147D+01 0.183D+00 0.101D+01 0.151D-02 0.286D+00
 Coeff:     -0.897D+01 0.769D+01
 Gap=     0.014 Goal=   None    Shift=    0.000
 RMSDP=3.14D-03 MaxDP=2.33D-02 DE=-1.87D-02 OVMax= 8.01D-02

 Cycle  80  Pass 1  IDiag  1:
 E= -75.4496723294813     Delta-E=       -0.009438772536 Rises=F Damp=F
 DIIS: error= 7.94D-02 at cycle  67 NSaved=   9.
 NSaved= 9 IEnMin= 2 EnMin= -75.7721505608878     IErMin= 2 ErrMin= 5.15D-02
 ErrMax= 7.94D-02  0.00D+00 EMaxC= 1.00D+00 BMatC= 2.42D-01 BMatP= 7.42D-02
 IDIUse=1 WtCom= 1.00D+00 WtEn= 0.00D+00
 Coeff-Com: -0.689D+00 0.149D+01 0.270D+00 0.616D+00-0.998D-01 0.564D+00
 Coeff-Com: -0.777D+01 0.584D+01 0.770D+00
 Coeff:     -0.689D+00 0.149D+01 0.270D+00 0.616D+00-0.998D-01 0.564D+00
 Coeff:     -0.777D+01 0.584D+01 0.770D+00
 Gap=     0.013 Goal=   None    Shift=    0.000
 RMSDP=1.33D-03 MaxDP=8.62D-03 DE=-9.44D-03 OVMax= 3.35D-02

 Cycle  81  Pass 1  IDiag  1:
 E= -75.4446587099894     Delta-E=        0.005013619492 Rises=F Damp=F
 DIIS: error= 8.02D-02 at cycle  68 NSaved=  10.
 NSaved=10 IEnMin= 2 EnMin= -75.7721505608878     IErMin= 2 ErrMin= 5.15D-02
 ErrMax= 8.02D-02  0.00D+00 EMaxC= 1.00D+00 BMatC= 2.46D-01 BMatP= 7.42D-02
 IDIUse=1 WtCom= 1.00D+00 WtEn= 0.00D+00
 Large coefficients: NSaved= 10 BigCof=   29.07 CofMax=   10.00 Det=-1.85D-07
 Inversion failed.  Reducing to  9 matrices.
 Large coefficients: NSaved=  9 BigCof=   18.57 CofMax=   10.00 Det=-3.26D-07
 Inversion failed.  Reducing to  8 matrices.
 Large coefficients: NSaved=  8 BigCof=   19.91 CofMax=   10.00 Det=-4.99D-07
 Inversion failed.  Reducing to  7 matrices.
 Coeff-Com: -0.603D+00 0.135D+01 0.720D+00-0.348D+01 0.324D+01 0.923D+01
 Coeff-Com: -0.946D+01
 Coeff:     -0.603D+00 0.135D+01 0.720D+00-0.348D+01 0.324D+01 0.923D+01
 Coeff:     -0.946D+01
 Gap=     0.013 Goal=   None    Shift=    0.000
 RMSDP=9.21D-03 MaxDP=6.96D-02 DE= 5.01D-03 OVMax= 2.32D-01

 Cycle  82  Pass 1  IDiag  1:
 E= -75.4796744445053     Delta-E=       -0.035015734516 Rises=F Damp=F
 DIIS: error= 7.46D-02 at cycle  69 NSaved=   8.
 NSaved= 8 IEnMin= 2 EnMin= -75.7721505608878     IErMin= 2 ErrMin= 5.15D-02
 ErrMax= 7.46D-02  0.00D+00 EMaxC= 1.00D+00 BMatC= 2.15D-01 BMatP= 7.42D-02
 IDIUse=1 WtCom= 1.00D+00 WtEn= 0.00D+00
 Large coefficients: NSaved=  8 BigCof=   15.05 CofMax=   10.00 Det=-1.91D-07
 Inversion failed.  Reducing to  7 matrices.
 Coeff-Com: -0.644D+00 0.142D+01-0.169D+01 0.457D+00-0.224D+01 0.250D+01
 Coeff-Com:  0.120D+01
 Coeff:     -0.644D+00 0.142D+01-0.169D+01 0.457D+00-0.224D+01 0.250D+01
 Coeff:      0.120D+01
 Gap=     0.014 Goal=   None    Shift=    0.000
 RMSDP=1.94D-03 MaxDP=1.46D-02 DE=-3.50D-02 OVMax= 4.57D-02

 Cycle  83  Pass 1  IDiag  1:
 E= -75.4635265144775     Delta-E=        0.016147930028 Rises=F Damp=F
 DIIS: error= 7.72D-02 at cycle  70 NSaved=   8.
 NSaved= 8 IEnMin= 2 EnMin= -75.7721505608878     IErMin= 2 ErrMin= 5.15D-02
 ErrMax= 7.72D-02  0.00D+00 EMaxC= 1.00D+00 BMatC= 2.29D-01 BMatP= 7.42D-02
 IDIUse=1 WtCom= 1.00D+00 WtEn= 0.00D+00
 Large coefficients: NSaved=  8 BigCof=   11.34 CofMax=   10.00 Det=-1.41D-06
 Inversion failed.  Reducing to  7 matrices.
 Coeff-Com: -0.568D+00 0.129D+01 0.923D+00 0.233D+01-0.602D+00 0.731D+01
 Coeff-Com: -0.969D+01
 Coeff:     -0.568D+00 0.129D+01 0.923D+00 0.233D+01-0.602D+00 0.731D+01
 Coeff:     -0.969D+01
 Gap=     0.014 Goal=   None    Shift=    0.000
 RMSDP=4.76D-03 MaxDP=3.79D-02 DE= 1.61D-02 OVMax= 1.15D-01

 Cycle  84  Pass 1  IDiag  1:
 E= -75.4967000534670     Delta-E=       -0.033173538989 Rises=F Damp=F
 DIIS: error= 7.15D-02 at cycle  71 NSaved=   8.
 NSaved= 8 IEnMin= 2 EnMin= -75.7721505608878     IErMin= 2 ErrMin= 5.15D-02
 ErrMax= 7.15D-02  0.00D+00 EMaxC= 1.00D+00 BMatC= 2.00D-01 BMatP= 7.42D-02
 IDIUse=1 WtCom= 1.00D+00 WtEn= 0.00D+00
 Large coefficients: NSaved=  8 BigCof=   13.55 CofMax=   10.00 Det=-1.26D-06
 Inversion failed.  Reducing to  7 matrices.
 Coeff-Com: -0.602D+00 0.134D+01 0.758D+01-0.470D+01 0.177D+01-0.637D+01
 Coeff-Com:  0.198D+01
 Coeff:     -0.602D+00 0.134D+01 0.758D+01-0.470D+01 0.177D+01-0.637D+01
 Coeff:      0.198D+01
 Gap=     0.015 Goal=   None    Shift=    0.000
 RMSDP=1.56D-03 MaxDP=1.35D-02 DE=-3.32D-02 OVMax= 3.84D-02

 Cycle  85  Pass 1  IDiag  1:
 E= -75.4895935418558     Delta-E=        0.007106511611 Rises=F Damp=F
 DIIS: error= 7.27D-02 at cycle  72 NSaved=   8.
 NSaved= 8 IEnMin= 2 EnMin= -75.7721505608878     IErMin= 2 ErrMin= 5.15D-02
 ErrMax= 7.27D-02  0.00D+00 EMaxC= 1.00D+00 BMatC= 2.06D-01 BMatP= 7.42D-02
 IDIUse=1 WtCom= 1.00D+00 WtEn= 0.00D+00
 Large coefficients: NSaved=  8 BigCof=   10.29 CofMax=   10.00 Det=-1.20D-06
 Inversion failed.  Reducing to  7 matrices.
 Large coefficients: NSaved=  7 BigCof=   10.43 CofMax=   10.00 Det=-1.24D-06
 Inversion failed.  Reducing to  6 matrices.
 Coeff-Com: -0.798D+00 0.171D+01-0.539D+01 0.271D+01 0.124D+01 0.153D+01
 Coeff:     -0.798D+00 0.171D+01-0.539D+01 0.271D+01 0.124D+01 0.153D+01
 Gap=     0.006 Goal=   None    Shift=    0.000
 RMSDP=7.49D-03 MaxDP=7.60D-02 DE= 7.11D-03 OVMax= 1.20D-01

 Cycle  86  Pass 1  IDiag  1:
 E= -75.3540098212057     Delta-E=        0.135583720650 Rises=F Damp=F
 DIIS: error= 9.38D-02 at cycle  73 NSaved=   7.
 NSaved= 7 IEnMin= 2 EnMin= -75.7721505608878     IErMin= 2 ErrMin= 5.15D-02
 ErrMax= 9.38D-02  0.00D+00 EMaxC= 1.00D+00 BMatC= 3.27D-01 BMatP= 7.42D-02
 IDIUse=1 WtCom= 1.00D+00 WtEn= 0.00D+00
 Coeff-Com: -0.727D+00 0.156D+01-0.250D+01 0.128D+01 0.153D+01 0.143D+00
 Coeff-Com: -0.281D+00
 Coeff:     -0.727D+00 0.156D+01-0.250D+01 0.128D+01 0.153D+01 0.143D+00
 Coeff:     -0.281D+00
 Gap=     0.014 Goal=   None    Shift=    0.000
 RMSDP=4.08D-03 MaxDP=3.28D-02 DE= 1.36D-01 OVMax= 7.95D-02

 Cycle  87  Pass 1  IDiag  1:
 E= -75.4197782801205     Delta-E=       -0.065768458915 Rises=F Damp=F
 DIIS: error= 8.40D-02 at cycle  74 NSaved=   8.
 NSaved= 8 IEnMin= 2 EnMin= -75.7721505608878     IErMin= 2 ErrMin= 5.15D-02
 ErrMax= 8.40D-02  0.00D+00 EMaxC= 1.00D+00 BMatC= 2.67D-01 BMatP= 7.42D-02
 IDIUse=1 WtCom= 1.00D+00 WtEn= 0.00D+00
 Large coefficients: NSaved=  8 BigCof=   15.01 CofMax=   10.00 Det=-1.53D-06
 Inversion failed.  Reducing to  7 matrices.
 Coeff-Com: -0.640D+00 0.144D+01 0.469D+01-0.125D+01 0.140D+01 0.377D+01
 Coeff-Com: -0.842D+01
 Coeff:     -0.640D+00 0.144D+01 0.469D+01-0.125D+01 0.140D+01 0.377D+01
 Coeff:     -0.842D+01
 Gap=     0.009 Goal=   None    Shift=    0.000
 RMSDP=1.88D-02 MaxDP=1.35D-01 DE=-6.58D-02 OVMax= 4.82D-01

 Cycle  88  Pass 1  IDiag  1:
 E= -75.4486657653597     Delta-E=       -0.028887485239 Rises=F Damp=F
 DIIS: error= 8.00D-02 at cycle  75 NSaved=   8.
 NSaved= 8 IEnMin= 2 EnMin= -75.7721505608878     IErMin= 2 ErrMin= 5.15D-02
 ErrMax= 8.00D-02  0.00D+00 EMaxC= 1.00D+00 BMatC= 2.40D-01 BMatP= 7.42D-02
 IDIUse=1 WtCom= 1.00D+00 WtEn= 0.00D+00
 Coeff-Com: -0.639D+00 0.144D+01 0.464D+01-0.123D+01 0.140D+01 0.376D+01
 Coeff-Com: -0.838D+01 0.471D-02
 Coeff:     -0.639D+00 0.144D+01 0.464D+01-0.123D+01 0.140D+01 0.376D+01
 Coeff:     -0.838D+01 0.471D-02
 Gap=     0.016 Goal=   None    Shift=    0.000
 RMSDP=6.63D-05 MaxDP=5.34D-04 DE=-2.89D-02 OVMax= 1.65D-03

 Cycle  89  Pass 1  IDiag  1:
 E= -75.4489656216025     Delta-E=       -0.000299856243 Rises=F Damp=F
 DIIS: error= 8.02D-02 at cycle  76 NSaved=   9.
 NSaved= 9 IEnMin= 2 EnMin= -75.7721505608878     IErMin= 2 ErrMin= 5.15D-02
 ErrMax= 8.02D-02  0.00D+00 EMaxC= 1.00D+00 BMatC= 2.40D-01 BMatP= 7.42D-02
 IDIUse=1 WtCom= 1.00D+00 WtEn= 0.00D+00
 Large coefficients: NSaved=  9 BigCof=  165.56 CofMax=   10.00 Det=-1.42D-08
 Inversion failed.  Reducing to  8 matrices.
 Large coefficients: NSaved=  8 BigCof=  206.80 CofMax=   10.00 Det=-1.47D-08
 Inversion failed.  Reducing to  7 matrices.
 Large coefficients: NSaved=  7 BigCof=  215.67 CofMax=   10.00 Det=-1.48D-08
 Inversion failed.  Reducing to  6 matrices.
 Large coefficients: NSaved=  6 BigCof=  129.78 CofMax=   10.00 Det=-3.14D-08
 Inversion failed.  Reducing to  5 matrices.
 Large coefficients: NSaved=  5 BigCof=  109.06 CofMax=   10.00 Det=-6.55D-08
 Inversion failed.  Reducing to  4 matrices.
 Coeff-Com: -0.807D+00 0.172D+01-0.354D+01 0.363D+01
 Coeff:     -0.807D+00 0.172D+01-0.354D+01 0.363D+01
 Gap=     0.007 Goal=   None    Shift=    0.000
 RMSDP=3.79D-03 MaxDP=4.40D-02 DE=-3.00D-04 OVMax= 3.24D-02

 Cycle  90  Pass 1  IDiag  1:
 E= -75.3566004240686     Delta-E=        0.092365197534 Rises=F Damp=F
 DIIS: error= 9.42D-02 at cycle  77 NSaved=   5.
 NSaved= 5 IEnMin= 2 EnMin= -75.7721505608878     IErMin= 2 ErrMin= 5.15D-02
 ErrMax= 9.42D-02  0.00D+00 EMaxC= 1.00D+00 BMatC= 3.25D-01 BMatP= 7.42D-02
 IDIUse=1 WtCom= 1.00D+00 WtEn= 0.00D+00
 Coeff-Com: -0.764D+00 0.162D+01-0.241D+01 0.292D+01-0.366D+00
 Coeff:     -0.764D+00 0.162D+01-0.241D+01 0.292D+01-0.366D+00
 Gap=     0.012 Goal=   None    Shift=    0.000
 RMSDP=1.86D-03 MaxDP=2.30D-02 DE= 9.24D-02 OVMax= 1.47D-02

 Cycle  91  Pass 1  IDiag  1:
 E= -75.3997150242685     Delta-E=       -0.043114600200 Rises=F Damp=F
 DIIS: error= 8.74D-02 at cycle  78 NSaved=   6.
 NSaved= 6 IEnMin= 2 EnMin= -75.7721505608878     IErMin= 2 ErrMin= 5.15D-02
 ErrMax= 8.74D-02  0.00D+00 EMaxC= 1.00D+00 BMatC= 2.87D-01 BMatP= 7.42D-02
 IDIUse=1 WtCom= 1.00D+00 WtEn= 0.00D+00
 Large coefficients: NSaved=  6 BigCof=   12.08 CofMax=   10.00 Det=-3.05D-07
 Inversion failed.  Reducing to  5 matrices.
 Coeff-Com: -0.744D+00 0.159D+01 0.209D+00-0.985D+00 0.933D+00
 Coeff:     -0.744D+00 0.159D+01 0.209D+00-0.985D+00 0.933D+00
 Gap=     0.013 Goal=   None    Shift=    0.000
 RMSDP=3.41D-03 MaxDP=2.48D-02 DE=-4.31D-02 OVMax= 8.68D-02

 Cycle  92  Pass 1  IDiag  1:
 E= -75.4108957257988     Delta-E=       -0.011180701530 Rises=F Damp=F
 DIIS: error= 8.57D-02 at cycle  79 NSaved=   6.
 NSaved= 6 IEnMin= 2 EnMin= -75.7721505608878     IErMin= 2 ErrMin= 5.15D-02
 ErrMax= 8.57D-02  0.00D+00 EMaxC= 1.00D+00 BMatC= 2.76D-01 BMatP= 7.42D-02
 IDIUse=1 WtCom= 1.00D+00 WtEn= 0.00D+00
 Coeff-Com: -0.743D+00 0.158D+01 0.187D+00-0.106D+01 0.109D+01-0.535D-01
 Coeff:     -0.743D+00 0.158D+01 0.187D+00-0.106D+01 0.109D+01-0.535D-01
 Gap=     0.013 Goal=   None    Shift=    0.000
 RMSDP=8.58D-04 MaxDP=6.48D-03 DE=-1.12D-02 OVMax= 2.20D-02

 Cycle  93  Pass 1  IDiag  1:
 E= -75.4122888638313     Delta-E=       -0.001393138032 Rises=F Damp=F
 DIIS: error= 8.54D-02 at cycle  80 NSaved=   7.
 NSaved= 7 IEnMin= 2 EnMin= -75.7721505608878     IErMin= 2 ErrMin= 5.15D-02
 ErrMax= 8.54D-02  0.00D+00 EMaxC= 1.00D+00 BMatC= 2.75D-01 BMatP= 7.42D-02
 IDIUse=1 WtCom= 1.00D+00 WtEn= 0.00D+00
 Large coefficients: NSaved=  7 BigCof=   14.39 CofMax=   10.00 Det=-1.35D-06
 Inversion failed.  Reducing to  6 matrices.
 Large coefficients: NSaved=  6 BigCof=   16.01 CofMax=   10.00 Det=-1.39D-06
 Inversion failed.  Reducing to  5 matrices.
 Coeff-Com: -0.770D+00 0.164D+01 0.907D+00 0.312D+01-0.389D+01
 Coeff:     -0.770D+00 0.164D+01 0.907D+00 0.312D+01-0.389D+01
 Gap=     0.010 Goal=   None    Shift=    0.000
 RMSDP=1.81D-03 MaxDP=1.36D-02 DE=-1.39D-03 OVMax= 4.15D-02

 Cycle  94  Pass 1  IDiag  1:
 E= -75.3922337984344     Delta-E=        0.020055065397 Rises=F Damp=F
 DIIS: error= 8.86D-02 at cycle  81 NSaved=   6.
 NSaved= 6 IEnMin= 2 EnMin= -75.7721505608878     IErMin= 2 ErrMin= 5.15D-02
 ErrMax= 8.86D-02  0.00D+00 EMaxC= 1.00D+00 BMatC= 2.93D-01 BMatP= 7.42D-02
 IDIUse=1 WtCom= 1.00D+00 WtEn= 0.00D+00
 Coeff-Com: -0.792D+00 0.168D+01 0.247D+01 0.254D+00-0.658D+01 0.397D+01
 Coeff:     -0.792D+00 0.168D+01 0.247D+01 0.254D+00-0.658D+01 0.397D+01
 Gap=     0.006 Goal=   None    Shift=    0.000
 RMSDP=7.22D-03 MaxDP=5.32D-02 DE= 2.01D-02 OVMax= 1.85D-01

 Cycle  95  Pass 1  IDiag  1:
 E= -75.3788119527286     Delta-E=        0.013421845706 Rises=F Damp=F
 DIIS: error= 9.79D-02 at cycle  82 NSaved=   7.
 NSaved= 7 IEnMin= 2 EnMin= -75.7721505608878     IErMin= 2 ErrMin= 5.15D-02
 ErrMax= 9.79D-02  0.00D+00 EMaxC= 1.00D+00 BMatC= 3.06D-01 BMatP= 7.42D-02
 IDIUse=1 WtCom= 1.00D+00 WtEn= 0.00D+00
 Coeff-Com: -0.804D+00 0.168D+01 0.284D+01-0.575D+01-0.197D+01 0.559D+01
 Coeff-Com: -0.594D+00
 Coeff:     -0.804D+00 0.168D+01 0.284D+01-0.575D+01-0.197D+01 0.559D+01
 Coeff:     -0.594D+00
 Gap=     0.009 Goal=   None    Shift=    0.000
 RMSDP=1.74D-03 MaxDP=1.49D-02 DE= 1.34D-02 OVMax= 4.45D-02

 Cycle  96  Pass 1  IDiag  1:
 E= -75.3835208158577     Delta-E=       -0.004708863129 Rises=F Damp=F
 DIIS: error= 1.01D-01 at cycle  83 NSaved=   8.
 NSaved= 8 IEnMin= 2 EnMin= -75.7721505608878     IErMin= 2 ErrMin= 5.15D-02
 ErrMax= 1.01D-01  0.00D+00 EMaxC= 1.00D+00 BMatC= 3.01D-01 BMatP= 7.42D-02
 IDIUse=1 WtCom= 1.00D+00 WtEn= 0.00D+00
 Coeff-Com: -0.793D+00 0.166D+01 0.265D+01-0.776D+01 0.180D+00 0.598D+01
 Coeff-Com: -0.176D+01 0.835D+00
 Coeff:     -0.793D+00 0.166D+01 0.265D+01-0.776D+01 0.180D+00 0.598D+01
[...]
 Coeff:     -0.163D+01 0.170D+01
 Gap=     0.015 Goal=   None    Shift=    0.000
 RMSDP=3.91D-03 MaxDP=2.82D-02 DE=-5.63D-02 OVMax= 9.95D-02

 Cycle 105  Pass 1  IDiag  1:
 E= -75.4678627965076     Delta-E=       -0.010597528782 Rises=F Damp=F
 DIIS: error= 7.67D-02 at cycle  92 NSaved=   9.
 NSaved= 9 IEnMin= 2 EnMin= -75.7721505608878     IErMin= 2 ErrMin= 5.15D-02
 ErrMax= 7.67D-02  0.00D+00 EMaxC= 1.00D+00 BMatC= 2.26D-01 BMatP= 7.42D-02
 IDIUse=1 WtCom= 1.00D+00 WtEn= 0.00D+00
 Large coefficients: NSaved=  9 BigCof=   10.60 CofMax=   10.00 Det=-8.14D-07
 Inversion failed.  Reducing to  8 matrices.
 Large coefficients: NSaved=  8 BigCof=   17.20 CofMax=   10.00 Det=-1.05D-06
 Inversion failed.  Reducing to  7 matrices.
 Large coefficients: NSaved=  7 BigCof=   16.42 CofMax=   10.00 Det=-1.30D-06
 Inversion failed.  Reducing to  6 matrices.
 Coeff-Com: -0.777D+00 0.165D+01-0.213D+00 0.137D+01 0.418D+00-0.145D+01
 Coeff:     -0.777D+00 0.165D+01-0.213D+00 0.137D+01 0.418D+00-0.145D+01
 Gap=     0.011 Goal=   None    Shift=    0.000
 RMSDP=5.09D-03 MaxDP=4.82D-02 DE=-1.06D-02 OVMax= 9.19D-02

 Cycle 106  Pass 1  IDiag  1:
 E= -75.3849978330184     Delta-E=        0.082864963489 Rises=F Damp=F
 DIIS: error= 8.93D-02 at cycle  93 NSaved=   7.
 NSaved= 7 IEnMin= 2 EnMin= -75.7721505608878     IErMin= 2 ErrMin= 5.15D-02
 ErrMax= 8.93D-02  0.00D+00 EMaxC= 1.00D+00 BMatC= 2.99D-01 BMatP= 7.42D-02
 IDIUse=1 WtCom= 1.00D+00 WtEn= 0.00D+00
 Coeff-Com: -0.661D+00 0.143D+01 0.255D+00-0.102D+00 0.615D+00 0.483D+00
 Coeff-Com: -0.102D+01
 Coeff:     -0.661D+00 0.143D+01 0.255D+00-0.102D+00 0.615D+00 0.483D+00
 Coeff:     -0.102D+01
 Gap=     0.018 Goal=   None    Shift=    0.000
 RMSDP=3.48D-03 MaxDP=4.34D-02 DE= 8.29D-02 OVMax= 2.84D-02

 Cycle 107  Pass 1  IDiag  1:
 E= -75.4624739271260     Delta-E=       -0.077476094108 Rises=F Damp=F
 DIIS: error= 7.74D-02 at cycle  94 NSaved=   8.
 NSaved= 8 IEnMin= 2 EnMin= -75.7721505608878     IErMin= 2 ErrMin= 5.15D-02
 ErrMax= 7.74D-02  0.00D+00 EMaxC= 1.00D+00 BMatC= 2.30D-01 BMatP= 7.42D-02
 IDIUse=1 WtCom= 1.00D+00 WtEn= 0.00D+00
 Coeff-Com: -0.528D+00 0.128D+01 0.331D+01-0.182D+01 0.305D+01 0.472D+01
 Coeff-Com: -0.106D+01-0.794D+01
 Coeff:     -0.528D+00 0.128D+01 0.331D+01-0.182D+01 0.305D+01 0.472D+01
 Coeff:     -0.106D+01-0.794D+01
 Gap=     0.008 Goal=   None    Shift=    0.000
 RMSDP=1.22D-03 MaxDP=1.35D-02 DE=-7.75D-02 OVMax= 1.57D-02

 Cycle 108  Pass 1  IDiag  1:
 E= -75.4818325696118     Delta-E=       -0.019358642486 Rises=F Damp=F
 DIIS: error= 7.40D-02 at cycle  95 NSaved=   9.
 NSaved= 9 IEnMin= 2 EnMin= -75.7721505608878     IErMin= 2 ErrMin= 5.15D-02
 ErrMax= 7.40D-02  0.00D+00 EMaxC= 1.00D+00 BMatC= 2.14D-01 BMatP= 7.42D-02
 IDIUse=1 WtCom= 1.00D+00 WtEn= 0.00D+00
 Coeff-Com: -0.522D+00 0.127D+01 0.347D+01-0.130D+01 0.386D+01 0.423D+01
 Coeff-Com: -0.121D+01-0.795D+01-0.839D+00
 Coeff:     -0.522D+00 0.127D+01 0.347D+01-0.130D+01 0.386D+01 0.423D+01
 Coeff:     -0.121D+01-0.795D+01-0.839D+00
 Gap=     0.008 Goal=   None    Shift=    0.000
 RMSDP=8.23D-04 MaxDP=5.63D-03 DE=-1.94D-02 OVMax= 2.10D-02

 Cycle 109  Pass 1  IDiag  1:
 E= -75.4830882580579     Delta-E=       -0.001255688446 Rises=F Damp=F
 DIIS: error= 7.37D-02 at cycle  96 NSaved=  10.
 NSaved=10 IEnMin= 2 EnMin= -75.7721505608878     IErMin= 2 ErrMin= 5.15D-02
 ErrMax= 7.37D-02  0.00D+00 EMaxC= 1.00D+00 BMatC= 2.13D-01 BMatP= 7.42D-02
 IDIUse=1 WtCom= 1.00D+00 WtEn= 0.00D+00
 Coeff-Com: -0.518D+00 0.126D+01 0.412D+01-0.126D+01 0.411D+01 0.372D+01
 Coeff-Com: -0.127D+01-0.778D+01-0.672D+01 0.532D+01
 Coeff:     -0.518D+00 0.126D+01 0.412D+01-0.126D+01 0.411D+01 0.372D+01
 Coeff:     -0.127D+01-0.778D+01-0.672D+01 0.532D+01
 Gap=     0.008 Goal=   None    Shift=    0.000
 RMSDP=1.33D-03 MaxDP=8.79D-03 DE=-1.26D-03 OVMax= 3.40D-02

 Cycle 110  Pass 1  IDiag  1:
 E= -75.4841499737567     Delta-E=       -0.001061715699 Rises=F Damp=F
 DIIS: error= 7.36D-02 at cycle  97 NSaved=  11.
 NSaved=11 IEnMin= 2 EnMin= -75.7721505608878     IErMin= 2 ErrMin= 5.15D-02
 ErrMax= 7.36D-02  0.00D+00 EMaxC= 1.00D+00 BMatC= 2.12D-01 BMatP= 7.42D-02
 IDIUse=1 WtCom= 1.00D+00 WtEn= 0.00D+00
 Coeff-Com: -0.539D+00 0.129D+01 0.410D+01-0.251D+01 0.231D+01 0.357D+01
 Coeff-Com: -0.911D+00-0.722D+01-0.375D-01-0.735D+01 0.829D+01
 Coeff:     -0.539D+00 0.129D+01 0.410D+01-0.251D+01 0.231D+01 0.357D+01
 Coeff:     -0.911D+00-0.722D+01-0.375D-01-0.735D+01 0.829D+01
 Gap=     0.008 Goal=   None    Shift=    0.000
 RMSDP=2.86D-04 MaxDP=1.95D-03 DE=-1.06D-03 OVMax= 6.17D-03

 Cycle 111  Pass 1  IDiag  1:
 E= -75.4830135751470     Delta-E=        0.001136398610 Rises=F Damp=F
 DIIS: error= 7.37D-02 at cycle  98 NSaved=  12.
 NSaved=12 IEnMin= 2 EnMin= -75.7721505608878     IErMin= 2 ErrMin= 5.15D-02
 ErrMax= 7.37D-02  0.00D+00 EMaxC= 1.00D+00 BMatC= 2.13D-01 BMatP= 7.42D-02
 IDIUse=1 WtCom= 1.00D+00 WtEn= 0.00D+00
 Large coefficients: NSaved= 12 BigCof=   87.96 CofMax=   10.00 Det=-1.65D-08
 Inversion failed.  Reducing to 11 matrices.
 Large coefficients: NSaved= 11 BigCof=   98.84 CofMax=   10.00 Det=-2.04D-08
 Inversion failed.  Reducing to 10 matrices.
 Large coefficients: NSaved= 10 BigCof=   99.52 CofMax=   10.00 Det=-2.09D-08
 Inversion failed.  Reducing to  9 matrices.
 Large coefficients: NSaved=  9 BigCof=   13.63 CofMax=   10.00 Det=-3.25D-08
 Inversion failed.  Reducing to  8 matrices.
 Large coefficients: NSaved=  8 BigCof=   21.83 CofMax=   10.00 Det=-1.22D-07
 Inversion failed.  Reducing to  7 matrices.
 Large coefficients: NSaved=  7 BigCof=   10.35 CofMax=   10.00 Det=-2.15D-07
 Inversion failed.  Reducing to  6 matrices.
 Coeff-Com: -0.801D+00 0.170D+01-0.266D+00-0.118D+01 0.500D+01-0.345D+01
 Coeff:     -0.801D+00 0.170D+01-0.266D+00-0.118D+01 0.500D+01-0.345D+01
 Gap=     0.009 Goal=   None    Shift=    0.000
 RMSDP=5.30D-03 MaxDP=6.66D-02 DE= 1.14D-03 OVMax= 4.53D-02

 Cycle 112  Pass 1  IDiag  1:
 E= -75.3659648907465     Delta-E=        0.117048684401 Rises=F Damp=F
 DIIS: error= 9.19D-02 at cycle  99 NSaved=   7.
 NSaved= 7 IEnMin= 2 EnMin= -75.7721505608878     IErMin= 2 ErrMin= 5.15D-02
 ErrMax= 9.19D-02  0.00D+00 EMaxC= 1.00D+00 BMatC= 3.16D-01 BMatP= 7.42D-02
 IDIUse=1 WtCom= 1.00D+00 WtEn= 0.00D+00
 Coeff-Com: -0.701D+00 0.149D+01-0.166D+00-0.711D-01 0.216D+01-0.116D+01
 Coeff-Com: -0.552D+00
 Coeff:     -0.701D+00 0.149D+01-0.166D+00-0.711D-01 0.216D+01-0.116D+01
 Coeff:     -0.552D+00
 Gap=     0.017 Goal=   None    Shift=    0.000
 RMSDP=3.51D-03 MaxDP=4.33D-02 DE= 1.17D-01 OVMax= 2.94D-02

 Cycle 113  Pass 1  IDiag  1:
 E= -75.4482183572051     Delta-E=       -0.082253466459 Rises=F Damp=F
 DIIS: error= 7.95D-02 at cycle 100 NSaved=   8.
 NSaved= 8 IEnMin= 2 EnMin= -75.7721505608878     IErMin= 2 ErrMin= 5.15D-02
 ErrMax= 7.95D-02  0.00D+00 EMaxC= 1.00D+00 BMatC= 2.43D-01 BMatP= 7.42D-02
 IDIUse=1 WtCom= 1.00D+00 WtEn= 0.00D+00
 Coeff-Com: -0.727D+00 0.155D+01 0.156D+00 0.325D+01-0.395D-01 0.159D+00
 Coeff-Com:  0.953D+00-0.431D+01
 Coeff:     -0.727D+00 0.155D+01 0.156D+00 0.325D+01-0.395D-01 0.159D+00
 Coeff:      0.953D+00-0.431D+01
 Gap=     0.013 Goal=   None    Shift=    0.000
 RMSDP=1.34D-03 MaxDP=1.92D-02 DE=-8.23D-02 OVMax= 1.27D-02

 Cycle 114  Pass 1  IDiag  1:
 E= -75.4207942849588     Delta-E=        0.027424072246 Rises=F Damp=F
 DIIS: error= 8.34D-02 at cycle 101 NSaved=   9.
 NSaved= 9 IEnMin= 2 EnMin= -75.7721505608878     IErMin= 2 ErrMin= 5.15D-02
 ErrMax= 8.34D-02  0.00D+00 EMaxC= 1.00D+00 BMatC= 2.66D-01 BMatP= 7.42D-02
 IDIUse=1 WtCom= 1.00D+00 WtEn= 0.00D+00
 Coeff-Com: -0.677D+00 0.147D+01-0.163D+00 0.250D+01 0.434D+01-0.343D+01
 Coeff-Com:  0.193D+01-0.130D+01-0.368D+01
 Coeff:     -0.677D+00 0.147D+01-0.163D+00 0.250D+01 0.434D+01-0.343D+01
 Coeff:      0.193D+01-0.130D+01-0.368D+01
 Gap=     0.017 Goal=   None    Shift=    0.000
 RMSDP=1.18D-03 MaxDP=9.47D-03 DE= 2.74D-02 OVMax= 2.01D-02

 Cycle 115  Pass 1  IDiag  1:
 E= -75.4417056593349     Delta-E=       -0.020911374376 Rises=F Damp=F
 DIIS: error= 7.96D-02 at cycle 102 NSaved=  10.
 NSaved=10 IEnMin= 2 EnMin= -75.7721505608878     IErMin= 2 ErrMin= 5.15D-02
 ErrMax= 7.96D-02  0.00D+00 EMaxC= 1.00D+00 BMatC= 2.46D-01 BMatP= 7.42D-02
 IDIUse=1 WtCom= 1.00D+00 WtEn= 0.00D+00
 Coeff-Com: -0.675D+00 0.145D+01 0.942D+00 0.270D+01 0.703D+01-0.636D+01
 Coeff-Com:  0.342D+01-0.403D+01-0.758D+01 0.410D+01
 Coeff:     -0.675D+00 0.145D+01 0.942D+00 0.270D+01 0.703D+01-0.636D+01
 Coeff:      0.342D+01-0.403D+01-0.758D+01 0.410D+01
 Gap=     0.016 Goal=   None    Shift=    0.000
 RMSDP=7.95D-04 MaxDP=9.66D-03 DE=-2.09D-02 OVMax= 9.01D-03

 Cycle 116  Pass 1  IDiag  1:
 E= -75.4554738707054     Delta-E=       -0.013768211370 Rises=F Damp=F
 DIIS: error= 7.75D-02 at cycle 103 NSaved=  11.
 NSaved=11 IEnMin= 2 EnMin= -75.7721505608878     IErMin= 2 ErrMin= 5.15D-02
 ErrMax= 7.75D-02  0.00D+00 EMaxC= 1.00D+00 BMatC= 2.34D-01 BMatP= 7.42D-02
 IDIUse=1 WtCom= 1.00D+00 WtEn= 0.00D+00
 Coeff-Com: -0.672D+00 0.145D+01 0.894D+00 0.249D+01 0.718D+01-0.613D+01
 Coeff-Com:  0.351D+01-0.395D+01-0.809D+01 0.495D+01-0.630D+00
 Coeff:     -0.672D+00 0.145D+01 0.894D+00 0.249D+01 0.718D+01-0.613D+01
 Coeff:      0.351D+01-0.395D+01-0.809D+01 0.495D+01-0.630D+00
 Gap=     0.017 Goal=   None    Shift=    0.000
 RMSDP=1.42D-04 MaxDP=1.24D-03 DE=-1.38D-02 OVMax= 2.73D-03

 Cycle 117  Pass 1  IDiag  1:
 E= -75.4575232383851     Delta-E=       -0.002049367680 Rises=F Damp=F
 DIIS: error= 7.72D-02 at cycle 104 NSaved=  12.
 NSaved=12 IEnMin= 2 EnMin= -75.7721505608878     IErMin= 2 ErrMin= 5.15D-02
 ErrMax= 7.72D-02  0.00D+00 EMaxC= 1.00D+00 BMatC= 2.33D-01 BMatP= 7.42D-02
 IDIUse=1 WtCom= 1.00D+00 WtEn= 0.00D+00
 Large coefficients: NSaved= 12 BigCof=  176.03 CofMax=   10.00 Det=-1.12D-08
 Inversion failed.  Reducing to 11 matrices.
 Large coefficients: NSaved= 11 BigCof=   35.21 CofMax=   10.00 Det=-5.28D-08
 Inversion failed.  Reducing to 10 matrices.
 Large coefficients: NSaved= 10 BigCof=   44.19 CofMax=   10.00 Det=-5.97D-08
 Inversion failed.  Reducing to  9 matrices.
 Large coefficients: NSaved=  9 BigCof=   36.69 CofMax=   10.00 Det=-6.21D-08
 Inversion failed.  Reducing to  8 matrices.
 Coeff-Com: -0.703D+00 0.152D+01-0.832D+00 0.107D+01 0.764D+00 0.870D+00
 Coeff-Com: -0.488D+01 0.319D+01
 Coeff:     -0.703D+00 0.152D+01-0.832D+00 0.107D+01 0.764D+00 0.870D+00
 Coeff:     -0.488D+01 0.319D+01
 Gap=     0.016 Goal=   None    Shift=    0.000
 RMSDP=1.34D-03 MaxDP=1.49D-02 DE=-2.05D-03 OVMax= 1.64D-02

 Cycle 118  Pass 1  IDiag  1:
 E= -75.4300762362114     Delta-E=        0.027447002174 Rises=F Damp=F
 DIIS: error= 8.20D-02 at cycle 105 NSaved=   9.
 NSaved= 9 IEnMin= 2 EnMin= -75.7721505608878     IErMin= 2 ErrMin= 5.15D-02
 ErrMax= 8.20D-02  0.00D+00 EMaxC= 1.00D+00 BMatC= 2.57D-01 BMatP= 7.42D-02
 IDIUse=1 WtCom= 1.00D+00 WtEn= 0.00D+00
 Large coefficients: NSaved=  9 BigCof=   40.16 CofMax=   10.00 Det=-6.57D-08
 Inversion failed.  Reducing to  8 matrices.
 Coeff-Com: -0.664D+00 0.143D+01-0.740D-01 0.136D+01 0.182D+01-0.133D+01
 Coeff-Com: -0.129D+00-0.141D+01
 Coeff:     -0.664D+00 0.143D+01-0.740D-01 0.136D+01 0.182D+01-0.133D+01
 Coeff:     -0.129D+00-0.141D+01
 Gap=     0.019 Goal=   None    Shift=    0.000
 RMSDP=1.70D-03 MaxDP=2.21D-02 DE= 2.74D-02 OVMax= 1.54D-02

 Cycle 119  Pass 1  IDiag  1:
 E= -75.4668158525478     Delta-E=       -0.036739616336 Rises=F Damp=F
 DIIS: error= 7.62D-02 at cycle 106 NSaved=   9.
 NSaved= 9 IEnMin= 2 EnMin= -75.7721505608878     IErMin= 2 ErrMin= 5.15D-02
 ErrMax= 7.62D-02  0.00D+00 EMaxC= 1.00D+00 BMatC= 2.25D-01 BMatP= 7.42D-02
 IDIUse=1 WtCom= 1.00D+00 WtEn= 0.00D+00
 Coeff-Com: -0.671D+00 0.144D+01 0.533D+00 0.280D+01 0.164D+01-0.252D+01
 Coeff-Com:  0.154D+01-0.133D+01-0.244D+01
 Coeff:     -0.671D+00 0.144D+01 0.533D+00 0.280D+01 0.164D+01-0.252D+01
 Coeff:      0.154D+01-0.133D+01-0.244D+01
 Gap=     0.018 Goal=   None    Shift=    0.000
 RMSDP=2.84D-04 MaxDP=3.13D-03 DE=-3.67D-02 OVMax= 2.67D-03

 Cycle 120  Pass 1  IDiag  1:
 E= -75.4609236936271     Delta-E=        0.005892158921 Rises=F Damp=F
 DIIS: error= 7.71D-02 at cycle 107 NSaved=  10.
 NSaved=10 IEnMin= 2 EnMin= -75.7721505608878     IErMin= 2 ErrMin= 5.15D-02
 ErrMax= 7.71D-02  0.00D+00 EMaxC= 1.00D+00 BMatC= 2.30D-01 BMatP= 7.42D-02
 IDIUse=1 WtCom= 1.00D+00 WtEn= 0.00D+00
 Large coefficients: NSaved= 10 BigCof=   14.76 CofMax=   10.00 Det=-2.81D-07
 Inversion failed.  Reducing to  9 matrices.
 Coeff-Com: -0.692D+00 0.148D+01-0.195D+00 0.164D+01 0.201D+01-0.628D+00
 Coeff-Com:  0.247D+01 0.275D+01-0.783D+01
 Coeff:     -0.692D+00 0.148D+01-0.195D+00 0.164D+01 0.201D+01-0.628D+00
 Coeff:      0.247D+01 0.275D+01-0.783D+01
 Gap=     0.018 Goal=   None    Shift=    0.000
 RMSDP=4.23D-04 MaxDP=5.10D-03 DE= 5.89D-03 OVMax= 3.99D-03

 Cycle 121  Pass 1  IDiag  1:
 E= -75.4521933732710     Delta-E=        0.008730320356 Rises=F Damp=F
 DIIS: error= 7.86D-02 at cycle 108 NSaved=  10.
 NSaved=10 IEnMin= 2 EnMin= -75.7721505608878     IErMin= 2 ErrMin= 5.15D-02
 ErrMax= 7.86D-02  0.00D+00 EMaxC= 1.00D+00 BMatC= 2.38D-01 BMatP= 7.42D-02
 IDIUse=1 WtCom= 1.00D+00 WtEn= 0.00D+00
 Large coefficients: NSaved= 10 BigCof=   25.66 CofMax=   10.00 Det=-6.99D-08
 Inversion failed.  Reducing to  9 matrices.
 Large coefficients: NSaved=  9 BigCof=   16.54 CofMax=   10.00 Det=-1.94D-07
 Inversion failed.  Reducing to  8 matrices.
 Coeff-Com: -0.669D+00 0.144D+01-0.123D+00 0.115D+01 0.232D+01-0.135D+01
 Coeff-Com:  0.237D+01-0.414D+01
 Coeff:     -0.669D+00 0.144D+01-0.123D+00 0.115D+01 0.232D+01-0.135D+01
 Coeff:      0.237D+01-0.414D+01
 Gap=     0.019 Goal=   None    Shift=    0.000
 RMSDP=6.00D-04 MaxDP=7.42D-03 DE= 8.73D-03 OVMax= 5.22D-03

 Cycle 122  Pass 1  IDiag  1:
 E= -75.4651955775485     Delta-E=       -0.013002204277 Rises=F Damp=F
 DIIS: error= 7.65D-02 at cycle 109 NSaved=   9.
 NSaved= 9 IEnMin= 2 EnMin= -75.7721505608878     IErMin= 2 ErrMin= 5.15D-02
 ErrMax= 7.65D-02  0.00D+00 EMaxC= 1.00D+00 BMatC= 2.27D-01 BMatP= 7.42D-02
 IDIUse=1 WtCom= 1.00D+00 WtEn= 0.00D+00
 Large coefficients: NSaved=  9 BigCof=   12.80 CofMax=   10.00 Det=-2.42D-07
 Inversion failed.  Reducing to  8 matrices.
 Coeff-Com: -0.673D+00 0.144D+01-0.307D+00 0.114D+01 0.195D+01-0.661D+00
 Coeff-Com: -0.307D+01 0.118D+01
 Coeff:     -0.673D+00 0.144D+01-0.307D+00 0.114D+01 0.195D+01-0.661D+00
 Coeff:     -0.307D+01 0.118D+01
 Gap=     0.019 Goal=   None    Shift=    0.000
 RMSDP=1.82D-04 MaxDP=2.39D-03 DE=-1.30D-02 OVMax= 1.80D-03

 Cycle 123  Pass 1  IDiag  1:
 E= -75.4616114484653     Delta-E=        0.003584129083 Rises=F Damp=F
 DIIS: error= 7.70D-02 at cycle 110 NSaved=   9.
 NSaved= 9 IEnMin= 2 EnMin= -75.7721505608878     IErMin= 2 ErrMin= 5.15D-02
 ErrMax= 7.70D-02  0.00D+00 EMaxC= 1.00D+00 BMatC= 2.30D-01 BMatP= 7.42D-02
 IDIUse=1 WtCom= 1.00D+00 WtEn= 0.00D+00
 Large coefficients: NSaved=  9 BigCof=   47.93 CofMax=   10.00 Det=-2.02D-07
 Inversion failed.  Reducing to  8 matrices.
 Large coefficients: NSaved=  8 BigCof=   13.85 CofMax=   10.00 Det=-8.88D-07
 Inversion failed.  Reducing to  7 matrices.
 Large coefficients: NSaved=  7 BigCof=   12.03 CofMax=   10.00 Det=-1.03D-06
 Inversion failed.  Reducing to  6 matrices.
 Large coefficients: NSaved=  6 BigCof=   12.16 CofMax=   10.00 Det=-1.03D-06
 Inversion failed.  Reducing to  5 matrices.
 Large coefficients: NSaved=  5 BigCof=   18.27 CofMax=   10.00 Det=-1.43D-06
 Inversion failed.  Reducing to  4 matrices.
 Large coefficients: NSaved=  4 BigCof=   18.87 CofMax=   10.00 Det=-1.46D-06
 Inversion failed.  Reducing to  3 matrices.
 Large coefficients: NSaved=  3 BigCof=   48.99 CofMax=   10.00 Det=-1.97D-06
 Inversion failed.  Reducing to  2 matrices.
 Large coefficients: NSaved=  2 BigCof=  132.52 CofMax=   10.00 Det=-1.17D-05
 Coeff-Com:  0.133D+03-0.132D+03
 Coeff:      0.133D+03-0.132D+03
 Gap=     0.084 Goal=   None    Shift=    0.000
 RMSDP=4.12D-02 MaxDP=3.93D-01 DE= 3.58D-03 OVMax= 9.97D-01

 Cycle 124  Pass 1  IDiag  1:
 E= -75.3708937169372     Delta-E=        0.090717731528 Rises=F Damp=F
 DIIS: error= 1.49D-01 at cycle 111 NSaved=   3.
 NSaved= 3 IEnMin= 1 EnMin= -75.4651955775485     IErMin= 1 ErrMin= 7.65D-02
 ErrMax= 1.49D-01  0.00D+00 EMaxC= 1.00D+00 BMatC= 5.84D-01 BMatP= 2.27D-01
 IDIUse=1 WtCom= 1.00D+00 WtEn= 0.00D+00
 Large coefficients: NSaved=  3 BigCof=   84.32 CofMax=   10.00 Det=-3.26D-06
 Inversion failed.  Reducing to  2 matrices.
 Coeff-Com:  0.628D+00 0.372D+00
 Coeff:      0.628D+00 0.372D+00
 Gap=     0.339 Goal=   None    Shift=    0.000
 RMSDP=9.46D-03 MaxDP=8.75D-02 DE= 9.07D-02 OVMax= 9.33D-02

 Cycle 125  Pass 1  IDiag  1:
 E= -75.6789900987275     Delta-E=       -0.308096381790 Rises=F Damp=F
 DIIS: error= 8.61D-02 at cycle 112 NSaved=   3.
 NSaved= 3 IEnMin= 3 EnMin= -75.6789900987275     IErMin= 1 ErrMin= 7.70D-02
 ErrMax= 8.61D-02  0.00D+00 EMaxC= 1.00D+00 BMatC= 1.92D-01 BMatP= 2.30D-01
 IDIUse=1 WtCom= 1.00D+00 WtEn= 0.00D+00
 Coeff-Com:  0.137D+00-0.973D+00 0.184D+01
 Coeff:      0.137D+00-0.973D+00 0.184D+01
 Gap=    -0.219 Goal=   None    Shift=    0.000
 RMSDP=3.84D-02 MaxDP=3.31D-01 DE=-3.08D-01 OVMax= 9.93D-01

 Cycle 126  Pass 1  IDiag  1:
 E= -75.4569452240282     Delta-E=        0.222044874699 Rises=F Damp=F
 DIIS: error= 8.86D-02 at cycle 113 NSaved=   4.
 NSaved= 4 IEnMin= 3 EnMin= -75.6789900987275     IErMin= 1 ErrMin= 7.70D-02
 ErrMax= 8.86D-02  0.00D+00 EMaxC= 1.00D+00 BMatC= 2.59D-01 BMatP= 1.92D-01
 IDIUse=1 WtCom= 1.00D+00 WtEn= 0.00D+00
 Coeff-Com: -0.295D+00-0.914D+00 0.177D+01 0.436D+00
 Coeff:     -0.295D+00-0.914D+00 0.177D+01 0.436D+00
 Gap=     0.012 Goal=   None    Shift=    0.000
 RMSDP=2.84D-03 MaxDP=1.86D-02 DE= 2.22D-01 OVMax= 7.07D-02

 Cycle 127  Pass 1  IDiag  1:
 E= -75.4557701544073     Delta-E=        0.001175069621 Rises=F Damp=F
 DIIS: error= 8.72D-02 at cycle 114 NSaved=   5.
 NSaved= 5 IEnMin= 3 EnMin= -75.6789900987275     IErMin= 1 ErrMin= 7.70D-02
 ErrMax= 8.72D-02  0.00D+00 EMaxC= 1.00D+00 BMatC= 2.56D-01 BMatP= 1.92D-01
 IDIUse=1 WtCom= 1.00D+00 WtEn= 0.00D+00
 Coeff-Com: -0.291D+00-0.914D+00 0.177D+01 0.504D+00-0.736D-01
 Coeff:     -0.291D+00-0.914D+00 0.177D+01 0.504D+00-0.736D-01
 Gap=     0.012 Goal=   None    Shift=    0.000
 RMSDP=1.41D-03 MaxDP=1.00D-02 DE= 1.18D-03 OVMax= 3.62D-02

 Cycle 128  Pass 1  IDiag  1:
 E= -75.4557912663495     Delta-E=       -0.000021111942 Rises=F Damp=F
 DIIS: error= 8.72D-02 at cycle 115 NSaved=   6.
 NSaved= 6 IEnMin= 3 EnMin= -75.6789900987275     IErMin= 1 ErrMin= 7.70D-02
 ErrMax= 8.72D-02  0.00D+00 EMaxC= 1.00D+00 BMatC= 2.56D-01 BMatP= 1.92D-01
 IDIUse=1 WtCom= 1.00D+00 WtEn= 0.00D+00
 Coeff-Com:  0.284D+00-0.851D+00 0.168D+01 0.461D+01 0.490D+01-0.962D+01
 Coeff:      0.284D+00-0.851D+00 0.168D+01 0.461D+01 0.490D+01-0.962D+01
 Gap=     0.012 Goal=   None    Shift=    0.000
 RMSDP=1.49D-03 MaxDP=9.47D-03 DE=-2.11D-05 OVMax= 3.16D-02

 >>>>>>>>>> Convergence criterion not met.
 SCF Done:  E(RB3LYP) =  -75.4557912663     A.U. after  129 cycles
            NFock=128  Conv=0.15D-02     -V/T= 2.0390
 KE= 7.262385217307D+01 PE=-1.820454508788D+02 EE= 2.850904677261D+01
 Leave Link  502 at Thu Sep 10 19:58:14 2020, MaxMem=    65536000 cpu:              30.9 elap:              15.4
 (Enter /home/public/wbh/soft/g16/l801.exe)
 DoSCS=F DFT=T ScalE2(SS,OS)=  1.000000  1.000000
 SCFChk:  SCF convergence  1.49D-03 required  1.00D-08


 SCF Error SCF Error SCF Error SCF Error SCF Error SCF Error SCF Error SCF Error

                                    ERROR!!!!

    SCF has not converged.  Gradients and post-SCF results would be GARBAGE!!

 SCF Error SCF Error SCF Error SCF Error SCF Error SCF Error SCF Error SCF Error


 Error termination via Lnk1e in /home/public/wbh/soft/g16/l801.exe at Thu Sep 10 19:58:14 2020.
 Job cpu time:       0 days  0 hours  0 minutes 32.0 seconds.
 Elapsed time:       0 days  0 hours  0 minutes 16.0 seconds.
 File lengths (MBytes):  RWF=      6 Int=      0 D2E=      0 Chk=      1 Scr=      1
