 Entering Gaussian System, Link 0=g16
 Input=ground.gjf
 Output=ground.log
 Initial command:
 /root/wbh/soft/g16/l1.exe "/root/wbh/soft/g16/scratch/Gau-93960.inp" -scrdir="/root/wbh/soft/g16/scratch/"
 Entering Link 1 = /root/wbh/soft/g16/l1.exe PID=     93961.
  
 Copyright (c) 1988-2017, Gaussian, Inc.  All Rights Reserved.
  
 This is part of the Gaussian(R) 16 program.  It is based on
 the Gaussian(R) 09 system (copyright 2009, Gaussian, Inc.),
 the Gaussian(R) 03 system (copyright 2003, Gaussian, Inc.),
 the Gaussian(R) 98 system (copyright 1998, Gaussian, Inc.),
 the Gaussian(R) 94 system (copyright 1995, Gaussian, Inc.),
 the Gaussian 92(TM) system (copyright 1992, Gaussian, Inc.),
 the Gaussian 90(TM) system (copyright 1990, Gaussian, Inc.),
 the Gaussian 88(TM) system (copyright 1988, Gaussian, Inc.),
 the Gaussian 86(TM) system (copyright 1986, Carnegie Mellon
 University), and the Gaussian 82(TM) system (copyright 1983,
 Carnegie Mellon University). Gaussian is a federally registered
 trademark of Gaussian, Inc.
  
 This software contains proprietary and confidential information,
 including trade secrets, belonging to Gaussian, Inc.
  
 This software is provided under written license and may be
 used, copied, transmitted, or stored only in accord with that
 written license.
  
 The following legend is applicable only to US Government
 contracts under FAR:
  
                    RESTRICTED RIGHTS LEGEND
  
 Use, reproduction and disclosure by the US Government is
 subject to restrictions as set forth in subparagraphs (a)
 and (c) of the Commercial Computer Software - Restricted
 Rights clause in FAR 52.227-19.
  
 Gaussian, Inc.
 340 Quinnipiac St., Bldg. 40, Wallingford CT 06492
  
  
 ---------------------------------------------------------------
 Warning -- This program may not be used in any manner that
 competes with the business of Gaussian, Inc. or will provide
 assistance to any competitor of Gaussian, Inc.  The licensee
 of this program is prohibited from giving any competitor of
 Gaussian, Inc. access to this program.  By using this program,
 the user acknowledges that Gaussian, Inc. is engaged in the
 business of creating and licensing software in the field of
 computational chemistry and represents and warrants to the
 licensee that it is not a competitor of Gaussian, Inc. and that
 it will not use this program in any manner prohibited above.
 ---------------------------------------------------------------
  

 Cite this work as:
 Gaussian 16, Revision B.01,
 M. J. Frisch, G. W. Trucks, H. B. Schlegel, G. E. Scuseria, 
 M. A. Robb, J. R. Cheeseman, G. Scalmani, V. Barone, 
 G. A. Petersson, H. Nakatsuji, X. Li, M. Caricato, A. V. Marenich, 
 J. Bloino, B. G. Janesko, R. Gomperts, B. Mennucci, H. P. Hratchian, 
 J. V. Ortiz, A. F. Izmaylov, J. L. Sonnenberg, D. Williams-Young, 
 F. Ding, F. Lipparini, F. Egidi, J. Goings, B. Peng, A. Petrone, 
 T. Henderson, D. Ranasinghe, V. G. Zakrzewski, J. Gao, N. Rega, 
 G. Zheng, W. Liang, M. Hada, M. Ehara, K. Toyota, R. Fukuda, 
 J. Hasegawa, M. Ishida, T. Nakajima, Y. Honda, O. Kitao, H. Nakai, 
 T. Vreven, K. Throssell, J. A. Montgomery, Jr., J. E. Peralta, 
 F. Ogliaro, M. J. Bearpark, J. J. Heyd, E. N. Brothers, K. N. Kudin, 
 V. N. Staroverov, T. A. Keith, R. Kobayashi, J. Normand, 
 K. Raghavachari, A. P. Rendell, J. C. Burant, S. S. Iyengar, 
 J. Tomasi, M. Cossi, J. M. Millam, M. Klene, C. Adamo, R. Cammi, 
 J. W. Ochterski, R. L. Martin, K. Morokuma, O. Farkas, 
 J. B. Foresman, and D. J. Fox, Gaussian, Inc., Wallingford CT, 2016.
 
 ******************************************
 Gaussian 16:  EM64L-G16RevB.01 20-Dec-2017
                23-Aug-2020 
 ******************************************
  %mem=500MB
  %nproc=2
 Will use up to    2 processors via shared memory.
 --------------------------------
 #p b3lyp def2svp force units(au)
 --------------------------------
 1/10=7,20=1,30=1,38=1/1,3;
 2/12=2,17=6,18=5,40=1/2;
 3/5=43,7=101,11=2,25=1,30=1,71=1,74=-5/1,2,3;
 4//1;
 5/5=2,38=5/2;
 6/7=2,8=2,9=2,10=2,28=1/1;
 7/29=1/1,2,3,16;
 1/10=7,30=1/3;
 99//99;
 Leave Link    1 at Sun Aug 23 14:49:08 2020, MaxMem=    65536000 cpu:               0.0 elap:               0.0
 (Enter /root/wbh/soft/g16/l101.exe)
 --------------------------------------------------------------
 generate for AIMD to electronic calculate potential and force.
 --------------------------------------------------------------
 Symbolic Z-matrix:
 Charge =  0 Multiplicity = 1
 O                     4.17282  -0.47479   0.47447 
 H                     4.49828   0.7994    1.98114 
 H                     5.08305  -1.41741   1.81356 
 
 ITRead=  0  0  0
 MicOpt= -1 -1 -1
 NAtoms=      3 NQM=        3 NQMF=       0 NMMI=      0 NMMIF=      0
                NMic=       0 NMicF=      0.
                    Isotopes and Nuclear Properties:
 (Nuclear quadrupole moments (NQMom) in fm**2, nuclear magnetic moments (NMagM)
  in nuclear magnetons)

  Atom         1           2           3
 IAtWgt=          16           1           1
 AtmWgt=  15.9949146   1.0078250   1.0078250
 NucSpn=           0           1           1
 AtZEff=   0.0000000   0.0000000   0.0000000
 NQMom=    0.0000000   0.0000000   0.0000000
 NMagM=    0.0000000   2.7928460   2.7928460
 AtZNuc=   8.0000000   1.0000000   1.0000000
 Leave Link  101 at Sun Aug 23 14:49:08 2020, MaxMem=    65536000 cpu:               0.1 elap:               0.0
 (Enter /root/wbh/soft/g16/l103.exe)

 GradGradGradGradGradGradGradGradGradGradGradGradGradGradGradGradGradGrad
 Berny optimization.
 Initialization pass.
 Trust Radius=3.00D-01 FncErr=1.00D-07 GrdErr=1.00D-07 EigMax=2.50D+02 EigMin=1.00D-04
 Number of steps in this run=      2 maximum allowed number of steps=      2.
 GradGradGradGradGradGradGradGradGradGradGradGradGradGradGradGradGradGrad

 Leave Link  103 at Sun Aug 23 14:49:08 2020, MaxMem=    65536000 cpu:               0.0 elap:               0.0
 (Enter /root/wbh/soft/g16/l202.exe)
                          Input orientation:                          
 ---------------------------------------------------------------------
 Center     Atomic      Atomic             Coordinates (Angstroms)
 Number     Number       Type             X           Y           Z
 ---------------------------------------------------------------------
      1          8           0        2.208163   -0.251250    0.251080
      2          1           0        2.380385    0.423024    1.048376
      3          1           0        2.689836   -0.750062    0.959692
 ---------------------------------------------------------------------
                    Distance matrix (angstroms):
                    1          2          3
     1  O    0.000000
     2  H    1.058294   0.000000
     3  H    0.991440   1.216453   0.000000
 Stoichiometry    H2O
 Framework group  CS[SG(H2O)]
 Deg. of freedom     3
 Full point group                 CS      NOp   2
 Largest Abelian subgroup         CS      NOp   2
 Largest concise Abelian subgroup C1      NOp   1
                         Standard orientation:                         
 ---------------------------------------------------------------------
 Center     Atomic      Atomic             Coordinates (Angstroms)
 Number     Number       Type             X           Y           Z
 ---------------------------------------------------------------------
      1          8           0        0.000000    0.165110    0.000000
      2          1           0        0.606809   -0.701937    0.000000
      3          1           0       -0.606809   -0.618941    0.000000
 ---------------------------------------------------------------------
 Rotational constants (GHZ):         685.8157295         411.2941547         257.1046026
 Leave Link  202 at Sun Aug 23 14:49:08 2020, MaxMem=    65536000 cpu:               0.0 elap:               0.0
 (Enter /root/wbh/soft/g16/l301.exe)
 Standard basis: def2SVP (5D, 7F)
 Ernie: Thresh=  0.10000D-02 Tol=  0.10000D-05 Strict=F.
 There are    19 symmetry adapted cartesian basis functions of A'  symmetry.
 There are     6 symmetry adapted cartesian basis functions of A"  symmetry.
 There are    18 symmetry adapted basis functions of A'  symmetry.
 There are     6 symmetry adapted basis functions of A"  symmetry.
    24 basis functions,    39 primitive gaussians,    25 cartesian basis functions
     5 alpha electrons        5 beta electrons
       nuclear repulsion energy         8.7052123719 Hartrees.
 IExCor=  402 DFT=T Ex+Corr=B3LYP ExCW=0 ScaHFX=  0.200000
 ScaDFX=  0.800000  0.720000  1.000000  0.810000 ScalE2=  1.000000  1.000000
 IRadAn=      5 IRanWt=     -1 IRanGd=            0 ICorTp=0 IEmpDi=  4
 NAtoms=    3 NActive=    3 NUniq=    3 SFac= 1.00D+00 NAtFMM=   60 NAOKFM=F Big=F
 Integral buffers will be    131072 words long.
 Raffenetti 2 integral format.
 Two-electron integral symmetry is turned on.
 Leave Link  301 at Sun Aug 23 14:49:08 2020, MaxMem=    65536000 cpu:               0.0 elap:               0.0
 (Enter /root/wbh/soft/g16/l302.exe)
 NPDir=0 NMtPBC=     1 NCelOv=     1 NCel=       1 NClECP=     1 NCelD=      1
         NCelK=      1 NCelE2=     1 NClLst=     1 CellRange=     0.0.
 One-electron integrals computed using PRISM.
 One-electron integral symmetry used in STVInt
   2 Symmetry operations used in ECPInt.
 ECPInt:  NShTT=      78 NPrTT=     272 LenC2=      79 LenP2D=     271.
 LDataN:  DoStor=T MaxTD1= 4 Len=   56
 NBasis=    24 RedAO= T EigKep=  4.05D-02  NBF=    18     6
 NBsUse=    24 1.00D-06 EigRej= -1.00D+00 NBFU=    18     6
 Precomputing XC quadrature grid using
 IXCGrd= 4 IRadAn=           5 IRanWt=          -1 IRanGd=           0 AccXCQ= 0.00D+00.
 Generated NRdTot=       0 NPtTot=           0 NUsed=           0 NTot=          32
 NSgBfM=    25    25    25    25    25 MxSgAt=     3 MxSgA2=     3.
 Leave Link  302 at Sun Aug 23 14:49:08 2020, MaxMem=    65536000 cpu:               0.1 elap:               0.1
 (Enter /root/wbh/soft/g16/l303.exe)
 DipDrv:  MaxL=1.
 Leave Link  303 at Sun Aug 23 14:49:08 2020, MaxMem=    65536000 cpu:               0.0 elap:               0.0
 (Enter /root/wbh/soft/g16/l401.exe)
 ExpMin= 1.22D-01 ExpMax= 2.27D+03 ExpMxC= 3.41D+02 IAcc=3 IRadAn=         5 AccDes= 0.00D+00
 Harris functional with IExCor=  402 and IRadAn=       5 diagonalized for initial guess.
 HarFok:  IExCor=  402 AccDes= 0.00D+00 IRadAn=         5 IDoV= 1 UseB2=F ITyADJ=14
 ICtDFT=  3500011 ScaDFX=  1.000000  1.000000  1.000000  1.000000
 FoFCou: FMM=F IPFlag=           0 FMFlag=      100000 FMFlg1=           0
         NFxFlg=           0 DoJE=T BraDBF=F KetDBF=T FulRan=T
         wScrn=  0.000000 ICntrl=       500 IOpCl=  0 I1Cent=   200000004 NGrid=           0
         NMat0=    1 NMatS0=      1 NMatT0=    0 NMatD0=    1 NMtDS0=    0 NMtDT0=    0
 Petite list used in FoFCou.
 Harris En= -76.3622444114561    
 JPrj=0 DoOrth=F DoCkMO=F.
 Initial guess orbital symmetries:
       Occupied  (A') (A') (A') (A') (A")
       Virtual   (A') (A') (A') (A') (A") (A') (A') (A') (A') (A")
                 (A") (A') (A') (A') (A") (A') (A") (A') (A')
 The electronic state of the initial guess is 1-A'.
 Leave Link  401 at Sun Aug 23 14:49:08 2020, MaxMem=    65536000 cpu:               0.2 elap:               0.1
 (Enter /root/wbh/soft/g16/l502.exe)
 Keep R1 ints in memory in symmetry-blocked form, NReq=1773122.
 FoFCou: FMM=F IPFlag=           0 FMFlag=           0 FMFlg1=           0
         NFxFlg=           0 DoJE=F BraDBF=F KetDBF=F FulRan=T
         wScrn=  0.000000 ICntrl=       600 IOpCl=  0 I1Cent=           0 NGrid=           0
         NMat0=    1 NMatS0=    300 NMatT0=    0 NMatD0=    1 NMtDS0=    0 NMtDT0=    0
 Petite list used in FoFCou.
 Closed shell SCF:
 Using DIIS extrapolation, IDIIS=  1040.
 NGot=    65536000 LenX=    65508776 LenY=    65507710
 Requested convergence on RMS density matrix=1.00D-08 within 128 cycles.
 Requested convergence on MAX density matrix=1.00D-06.
 Requested convergence on             energy=1.00D-06.
 No special actions if energy rises.
 Integral accuracy reduced to 1.0D-05 until final iterations.

 Cycle   1  Pass 0  IDiag  1:
 E= -76.2534982241989    
 DIIS: error= 4.78D-02 at cycle   1 NSaved=   1.
 NSaved= 1 IEnMin= 1 EnMin= -76.2534982241989     IErMin= 1 ErrMin= 4.78D-02
 ErrMax= 4.78D-02  0.00D+00 EMaxC= 1.00D-01 BMatC= 9.49D-02 BMatP= 9.49D-02
 IDIUse=3 WtCom= 5.22D-01 WtEn= 4.78D-01
 Coeff-Com:  0.100D+01
 Coeff-En:   0.100D+01
 Coeff:      0.100D+01
 Gap=     0.166 Goal=   None    Shift=    0.000
 GapD=    0.166 DampG=1.000 DampE=0.500 DampFc=0.5000 IDamp=-1.
 Damping current iteration by 5.00D-01
 RMSDP=2.45D-02 MaxDP=2.12D-01              OVMax= 2.50D-01

 Cycle   2  Pass 0  IDiag  1:
 E= -76.2709908306952     Delta-E=       -0.017492606496 Rises=F Damp=T
 DIIS: error= 1.57D-02 at cycle   2 NSaved=   2.
 NSaved= 2 IEnMin= 2 EnMin= -76.2709908306952     IErMin= 2 ErrMin= 1.57D-02
 ErrMax= 1.57D-02  0.00D+00 EMaxC= 1.00D-01 BMatC= 1.09D-02 BMatP= 9.49D-02
 IDIUse=3 WtCom= 8.43D-01 WtEn= 1.57D-01
 Coeff-Com:  0.247D+00 0.753D+00
 Coeff-En:   0.392D+00 0.608D+00
 Coeff:      0.269D+00 0.731D+00
 Gap=     0.300 Goal=   None    Shift=    0.000
 RMSDP=3.63D-03 MaxDP=4.33D-02 DE=-1.75D-02 OVMax= 1.41D-01

 Cycle   3  Pass 0  IDiag  1:
 E= -76.3289268625474     Delta-E=       -0.057936031852 Rises=F Damp=F
 DIIS: error= 2.17D-03 at cycle   3 NSaved=   3.
 NSaved= 3 IEnMin= 3 EnMin= -76.3289268625474     IErMin= 3 ErrMin= 2.17D-03
 ErrMax= 2.17D-03  0.00D+00 EMaxC= 1.00D-01 BMatC= 2.07D-04 BMatP= 1.09D-02
 IDIUse=3 WtCom= 9.78D-01 WtEn= 2.17D-02
 Coeff-Com:  0.291D-01-0.559D-01 0.103D+01
 Coeff-En:   0.000D+00 0.000D+00 0.100D+01
 Coeff:      0.284D-01-0.547D-01 0.103D+01
 Gap=     0.313 Goal=   None    Shift=    0.000
 RMSDP=3.97D-04 MaxDP=4.06D-03 DE=-5.79D-02 OVMax= 3.30D-03

 Cycle   4  Pass 0  IDiag  1:
 E= -76.3290735681601     Delta-E=       -0.000146705613 Rises=F Damp=F
 DIIS: error= 2.60D-04 at cycle   4 NSaved=   4.
 NSaved= 4 IEnMin= 4 EnMin= -76.3290735681601     IErMin= 4 ErrMin= 2.60D-04
 ErrMax= 2.60D-04  0.00D+00 EMaxC= 1.00D-01 BMatC= 1.61D-06 BMatP= 2.07D-04
 IDIUse=3 WtCom= 9.97D-01 WtEn= 2.60D-03
 Coeff-Com:  0.667D-02-0.217D-01 0.250D+00 0.765D+00
 Coeff-En:   0.000D+00 0.000D+00 0.000D+00 0.100D+01
 Coeff:      0.665D-02-0.216D-01 0.249D+00 0.766D+00
 Gap=     0.313 Goal=   None    Shift=    0.000
 RMSDP=2.68D-05 MaxDP=2.10D-04 DE=-1.47D-04 OVMax= 2.38D-04

 Cycle   5  Pass 0  IDiag  1:
 E= -76.3290746158289     Delta-E=       -0.000001047669 Rises=F Damp=F
 DIIS: error= 5.92D-05 at cycle   5 NSaved=   5.
 NSaved= 5 IEnMin= 5 EnMin= -76.3290746158289     IErMin= 5 ErrMin= 5.92D-05
 ErrMax= 5.92D-05  0.00D+00 EMaxC= 1.00D-01 BMatC= 1.26D-07 BMatP= 1.61D-06
 IDIUse=1 WtCom= 1.00D+00 WtEn= 0.00D+00
 Coeff-Com:  0.111D-02-0.167D-02 0.884D-02 0.679D-01 0.924D+00
 Coeff:      0.111D-02-0.167D-02 0.884D-02 0.679D-01 0.924D+00
 Gap=     0.313 Goal=   None    Shift=    0.000
 RMSDP=1.05D-05 MaxDP=7.54D-05 DE=-1.05D-06 OVMax= 1.12D-04

 Cycle   6  Pass 0  IDiag  1:
 E= -76.3290747171486     Delta-E=       -0.000000101320 Rises=F Damp=F
 DIIS: error= 2.43D-06 at cycle   6 NSaved=   6.
 NSaved= 6 IEnMin= 6 EnMin= -76.3290747171486     IErMin= 6 ErrMin= 2.43D-06
 ErrMax= 2.43D-06  0.00D+00 EMaxC= 1.00D-01 BMatC= 1.52D-10 BMatP= 1.26D-07
 IDIUse=1 WtCom= 1.00D+00 WtEn= 0.00D+00
 Coeff-Com:  0.217D-04-0.656D-04 0.319D-03-0.395D-02 0.515D-02 0.999D+00
 Coeff:      0.217D-04-0.656D-04 0.319D-03-0.395D-02 0.515D-02 0.999D+00
 Gap=     0.313 Goal=   None    Shift=    0.000
 RMSDP=4.16D-07 MaxDP=4.01D-06 DE=-1.01D-07 OVMax= 3.28D-06

 Initial convergence to 1.0D-05 achieved.  Increase integral accuracy.
 Cycle   7  Pass 1  IDiag  1:
 E= -76.3290725635252     Delta-E=        0.000002153623 Rises=F Damp=F
 DIIS: error= 3.55D-07 at cycle   1 NSaved=   1.
 NSaved= 1 IEnMin= 1 EnMin= -76.3290725635252     IErMin= 1 ErrMin= 3.55D-07
 ErrMax= 3.55D-07  0.00D+00 EMaxC= 1.00D-01 BMatC= 3.89D-12 BMatP= 3.89D-12
 IDIUse=1 WtCom= 1.00D+00 WtEn= 0.00D+00
 Coeff-Com:  0.100D+01
 Coeff:      0.100D+01
 Gap=     0.313 Goal=   None    Shift=    0.000
 RMSDP=4.16D-07 MaxDP=4.01D-06 DE= 2.15D-06 OVMax= 1.59D-06

 Cycle   8  Pass 1  IDiag  1:
 E= -76.3290725635264     Delta-E=       -0.000000000001 Rises=F Damp=F
 DIIS: error= 3.36D-07 at cycle   2 NSaved=   2.
 NSaved= 2 IEnMin= 2 EnMin= -76.3290725635264     IErMin= 2 ErrMin= 3.36D-07
 ErrMax= 3.36D-07  0.00D+00 EMaxC= 1.00D-01 BMatC= 4.29D-12 BMatP= 3.89D-12
 IDIUse=1 WtCom= 1.00D+00 WtEn= 0.00D+00
 Coeff-Com:  0.515D+00 0.485D+00
 Coeff:      0.515D+00 0.485D+00
 Gap=     0.313 Goal=   None    Shift=    0.000
 RMSDP=7.48D-08 MaxDP=6.24D-07 DE=-1.14D-12 OVMax= 7.60D-07

 Cycle   9  Pass 1  IDiag  1:
 E= -76.3290725635297     Delta-E=       -0.000000000003 Rises=F Damp=F
 DIIS: error= 9.24D-08 at cycle   3 NSaved=   3.
 NSaved= 3 IEnMin= 3 EnMin= -76.3290725635297     IErMin= 3 ErrMin= 9.24D-08
 ErrMax= 9.24D-08  0.00D+00 EMaxC= 1.00D-01 BMatC= 3.52D-13 BMatP= 3.89D-12
 IDIUse=1 WtCom= 1.00D+00 WtEn= 0.00D+00
 Coeff-Com:  0.666D-01 0.226D+00 0.707D+00
 Coeff:      0.666D-01 0.226D+00 0.707D+00
 Gap=     0.313 Goal=   None    Shift=    0.000
 RMSDP=1.78D-08 MaxDP=1.44D-07 DE=-3.33D-12 OVMax= 1.68D-07

 Cycle  10  Pass 1  IDiag  1:
 E= -76.3290725635300     Delta-E=        0.000000000000 Rises=F Damp=F
 DIIS: error= 1.13D-08 at cycle   4 NSaved=   4.
 NSaved= 4 IEnMin= 4 EnMin= -76.3290725635300     IErMin= 4 ErrMin= 1.13D-08
 ErrMax= 1.13D-08  0.00D+00 EMaxC= 1.00D-01 BMatC= 3.87D-15 BMatP= 3.52D-13
 IDIUse=1 WtCom= 1.00D+00 WtEn= 0.00D+00
 Coeff-Com:  0.156D-02 0.435D-01 0.175D+00 0.780D+00
 Coeff:      0.156D-02 0.435D-01 0.175D+00 0.780D+00
 Gap=     0.313 Goal=   None    Shift=    0.000
 RMSDP=1.75D-09 MaxDP=1.44D-08 DE=-2.56D-13 OVMax= 1.46D-08

 SCF Done:  E(RB3LYP) =  -76.3290725635     A.U. after   10 cycles
            NFock= 10  Conv=0.18D-08     -V/T= 2.0075
 KE= 7.575925112659D+01 PE=-1.978588047159D+02 EE= 3.706526865386D+01
 Leave Link  502 at Sun Aug 23 14:49:08 2020, MaxMem=    65536000 cpu:               0.6 elap:               0.3
 (Enter /root/wbh/soft/g16/l601.exe)
 Copying SCF densities to generalized density rwf, IOpCl= 0 IROHF=0.

 **********************************************************************

            Population analysis using the SCF Density.

 **********************************************************************

 Orbital symmetries:
       Occupied  (A') (A') (A') (A') (A")
       Virtual   (A') (A') (A') (A') (A") (A') (A') (A') (A') (A")
                 (A") (A') (A') (A') (A") (A') (A") (A') (A')
 The electronic state is 1-A'.
 Alpha  occ. eigenvalues --  -19.14069  -0.98512  -0.43477  -0.42680  -0.29730
 Alpha virt. eigenvalues --    0.01612   0.10741   0.48425   0.58780   0.90879
 Alpha virt. eigenvalues --    0.92034   1.02391   1.05731   1.25073   1.34681
 Alpha virt. eigenvalues --    1.47761   1.83393   2.15428   2.29110   2.84361
 Alpha virt. eigenvalues --    2.89270   2.99055   3.46720   3.77704
          Condensed to atoms (all electrons):
               1          2          3
     1  O    7.755455   0.255261   0.271018
     2  H    0.255261   0.651680  -0.053774
     3  H    0.271018  -0.053774   0.647855
 Mulliken charges:
               1
     1  O   -0.281734
     2  H    0.146833
     3  H    0.134901
 Sum of Mulliken charges =   0.00000
 Mulliken charges with hydrogens summed into heavy atoms:
               1
     1  O    0.000000
 Electronic spatial extent (au):  <R**2>=             19.8445
 Charge=              0.0000 electrons
 Dipole moment (field-independent basis, Debye):
    X=             -0.0707    Y=             -2.3590    Z=              0.0000  Tot=              2.3600
 Quadrupole moment (field-independent basis, Debye-Ang):
   XX=             -5.6204   YY=             -5.1629   ZZ=             -7.1168
   XY=             -0.0577   XZ=              0.0000   YZ=              0.0000
 Traceless Quadrupole moment (field-independent basis, Debye-Ang):
   XX=              0.3463   YY=              0.8038   ZZ=             -1.1501
   XY=             -0.0577   XZ=              0.0000   YZ=              0.0000
 Octapole moment (field-independent basis, Debye-Ang**2):
  XXX=             -0.1485  YYY=             -1.4896  ZZZ=              0.0000  XYY=              0.0449
  XXY=             -0.8177  XXZ=              0.0000  XZZ=             -0.0490  YZZ=             -0.2684
  YYZ=              0.0000  XYZ=              0.0000
 Hexadecapole moment (field-independent basis, Debye-Ang**3):
 XXXX=             -7.0629 YYYY=             -7.2320 ZZZZ=             -4.9879 XXXY=              0.1383
 XXXZ=              0.0000 YYYX=              0.0408 YYYZ=              0.0000 ZZZX=              0.0000
 ZZZY=              0.0000 XXYY=             -1.9540 XXZZ=             -2.0931 YYZZ=             -2.2150
 XXYZ=              0.0000 YYXZ=              0.0000 ZZXY=              0.0550
 N-N= 8.705212371891D+00 E-N=-1.978588044995D+02  KE= 7.575925112659D+01
 Symmetry A'   KE= 7.108921238369D+01
 Symmetry A"   KE= 4.670038742896D+00
 No NMR shielding tensors so no spin-rotation constants.
 Leave Link  601 at Sun Aug 23 14:49:09 2020, MaxMem=    65536000 cpu:               0.1 elap:               0.1
 (Enter /root/wbh/soft/g16/l701.exe)
 ... and contract with generalized density number  0.
 Compute integral first derivatives.
   2 Symmetry operations used in ECPInt.
 ECPInt:  NShTT=      78 NPrTT=     272 LenC2=      79 LenP2D=     271.
 LDataN:  DoStor=T MaxTD1= 5 Len=  102
 Leave Link  701 at Sun Aug 23 14:49:09 2020, MaxMem=    65536000 cpu:               0.1 elap:               0.1
 (Enter /root/wbh/soft/g16/l702.exe)
 L702 exits ... SP integral derivatives will be done elsewhere.
 Leave Link  702 at Sun Aug 23 14:49:09 2020, MaxMem=    65536000 cpu:               0.0 elap:               0.0
 (Enter /root/wbh/soft/g16/l703.exe)
 Integral derivatives from FoFJK, PRISM(SPDF).
 Compute integral first derivatives, UseDBF=F ICtDFT=           0.
 Calling FoFJK, ICntrl=      2127 FMM=F ISym2X=1 I1Cent= 0 IOpClX= 0 NMat=1 NMatS=1 NMatT=0.
 FoFJK:  IHMeth= 1 ICntrl=    2127 DoSepK=F KAlg= 0 I1Cent=           0 FoldK=F
 IRaf=         0 NMat=       1 IRICut=       1 DoRegI=T DoRafI=F ISym2E= 1 IDoP0=0 IntGTp=1.
 FoFCou: FMM=F IPFlag=           0 FMFlag=      100000 FMFlg1=         800
         NFxFlg=           0 DoJE=F BraDBF=F KetDBF=F FulRan=T
         wScrn=  0.000000 ICntrl=      2127 IOpCl=  0 I1Cent=           0 NGrid=           0
         NMat0=    1 NMatS0=      1 NMatT0=    0 NMatD0=    1 NMtDS0=    0 NMtDT0=    0
 Petite list used in FoFCou.
 Leave Link  703 at Sun Aug 23 14:49:09 2020, MaxMem=    65536000 cpu:               0.3 elap:               0.2
 (Enter /root/wbh/soft/g16/l716.exe)
 Dipole        =-2.78256985D-02-9.28085312D-01 5.06013793D-17
 ***** Axes restored to original set *****
 -------------------------------------------------------------------
 Center     Atomic                   Forces (Hartrees/Bohr)
 Number     Number              X              Y              Z
 -------------------------------------------------------------------
      1        8           0.031344544    0.034949765    0.089116413
      2        1          -0.029549937    0.007093983   -0.058468865
      3        1          -0.001794608   -0.042043748   -0.030647548
 -------------------------------------------------------------------
 Cartesian Forces:  Max     0.089116413 RMS     0.043713719
 Z-matrix is all fixed cartesians, so copy forces.
 Force constants in Cartesian coordinates: 
                1             2             3             4             5 
      1  0.899215D+00
      2  0.151317D+00  0.351237D+00
      3 -0.118319D+00 -0.913002D-01  0.689522D+00
      4 -0.190381D-01 -0.430037D-01 -0.680196D-01  0.782254D+00
      5 -0.262895D-01 -0.152827D+00 -0.153540D+00  0.255397D+00  0.246711D+00
      6 -0.573567D-01 -0.189171D+00 -0.242955D+00 -0.301260D+00  0.638940D-01
      7 -0.116583D+00  0.120195D+00 -0.171854D+00  0.378193D-03 -0.598471D-03
      8  0.103481D+00 -0.130028D+00  0.137649D+00  0.161158D-01 -0.255024D-01
      9 -0.182517D+00  0.173280D+00 -0.278544D+00  0.110873D-01 -0.175451D-01
                6             7             8             9 
      6  0.398535D+00
      7  0.424435D-03  0.879799D+00
      8  0.180863D-01  0.108912D+00  0.223913D+00
      9  0.124430D-01 -0.186763D+00 -0.262926D+00  0.434125D+00
 Leave Link  716 at Sun Aug 23 14:49:09 2020, MaxMem=    65536000 cpu:               0.0 elap:               0.0
 (Enter /root/wbh/soft/g16/l103.exe)

 GradGradGradGradGradGradGradGradGradGradGradGradGradGradGradGradGradGrad
 Berny optimization.
 Search for a local minimum.
 Step number   1 out of a maximum of    2
 All quantities printed in internal units (Hartrees-Bohrs-Radians)
 Second derivative matrix not updated -- first step.
 The second derivative matrix:
                          X1        Y1        Z1        X2        Y2
           X1           0.89922
           Y1           0.15132   0.35124
           Z1          -0.11832  -0.09130   0.68952
           X2          -0.01904  -0.04300  -0.06802   0.78225
           Y2          -0.02629  -0.15283  -0.15354   0.25540   0.24671
           Z2          -0.05736  -0.18917  -0.24295  -0.30126   0.06389
           X3          -0.11658   0.12020  -0.17185   0.00038  -0.00060
           Y3           0.10348  -0.13003   0.13765   0.01612  -0.02550
           Z3          -0.18252   0.17328  -0.27854   0.01109  -0.01755
                          Z2        X3        Y3        Z3
           Z2           0.39854
           X3           0.00042   0.87980
           Y3           0.01809   0.10891   0.22391
           Z3           0.01244  -0.18676  -0.26293   0.43412
 ITU=  0
     Eigenvalues ---    0.10432   0.60087   0.87035
 Quadratic step=7.239D-01 exceeds max=3.000D-01 adjusted using Lamda=-1.591D-01.
 Angle between NR and scaled steps=  10.08 degrees.
 Angle between quadratic step and forces=  39.69 degrees.
 ClnCor:  largest displacement from symmetrization is 1.99D-16 for atom     3.
 Linear search not attempted -- first point.
 ClnCor:  largest displacement from symmetrization is 1.73D-15 for atom     3.
 B after Tr=     0.016141    0.036645    0.057788
         Rot=    0.999994   -0.003076   -0.000920    0.001443 Ang=  -0.40 deg.
 Variable       Old X    -DE/DX   Delta X   Delta X   Delta X     New X
                                 (Linear)    (Quad)   (Total)
    X1        4.17282   0.03134   0.00000   0.02878   0.04460   4.21743
    Y1       -0.47479   0.03495   0.00000   0.02467   0.04583  -0.42897
    Z1        0.47447   0.08912   0.00000   0.07708   0.12432   0.59879
    X2        4.49828  -0.02955   0.00000  -0.09460  -0.07243   4.42585
    Y2        0.79940   0.00709   0.00000   0.11882   0.13134   0.93074
    Z2        1.98114  -0.05847   0.00000  -0.12587  -0.07062   1.91053
    X3        5.08305  -0.00179   0.00000   0.01321   0.02783   5.11088
    Y3       -1.41741  -0.04204   0.00000  -0.18858  -0.17717  -1.59458
    Z3        1.81356  -0.03065   0.00000  -0.09216  -0.05370   1.75985
         Item               Value     Threshold  Converged?
 Maximum Force            0.089116     0.000450     NO 
 RMS     Force            0.043714     0.000300     NO 
 Maximum Displacement     0.177172     0.001800     NO 
 RMS     Displacement     0.095497     0.001200     NO 
 Predicted change in Energy=-2.237893D-02
 GradGradGradGradGradGradGradGradGradGradGradGradGradGradGradGradGradGrad

 Leave Link  103 at Sun Aug 23 14:49:09 2020, MaxMem=    65536000 cpu:               0.0 elap:               0.0
 (Enter /root/wbh/soft/g16/l9999.exe)
 1\1\GINC-LOCALHOST\Force\RB3LYP\def2SVP\H2O1\ROOT\23-Aug-2020\0\\#p b3
 lyp def2svp force units(au)\\generate for AIMD to electronic calculate
  potential and force.\\0,1\O,2.2081632072,-0.2512499371,0.2510804734\H
 ,2.3803854122,0.4230242042,1.048376468\H,2.6898361799,-0.7500623406,0.
 9596921884\\Version=EM64L-G16RevB.01\State=1-A'\HF=-76.3290726\RMSD=1.
 751e-09\RMSF=4.371e-02\Dipole=0.3754045,0.0719332,0.8461759\Quadrupole
 =-0.5483047,0.1939875,0.3543172,-0.224899,0.5105112,0.1898145\PG=CS [S
 G(H2O1)]\\@


 REALITY IS FOR PEOPLE WHO CAN'T FACE SCIENCE FICTION.
 Job cpu time:       0 days  0 hours  0 minutes  1.8 seconds.
 Elapsed time:       0 days  0 hours  0 minutes  1.0 seconds.
 File lengths (MBytes):  RWF=      6 Int=      0 D2E=      0 Chk=      1 Scr=      1
 Normal termination of Gaussian 16 at Sun Aug 23 14:49:09 2020.
