 Entering Gaussian System, Link 0=g16
 Input=h2o.gjf
 Output=h2o.log
 Initial command:
 /root/wbh/soft/g16/l1.exe "/root/wbh/soft/g16/scratch/Gau-78758.inp" -scrdir="/root/wbh/soft/g16/scratch/"
 Entering Link 1 = /root/wbh/soft/g16/l1.exe PID=     78759.
  
 Copyright (c) 1988-2017, Gaussian, Inc.  All Rights Reserved.
  
 This is part of the Gaussian(R) 16 program.  It is based on
 the Gaussian(R) 09 system (copyright 2009, Gaussian, Inc.),
 the Gaussian(R) 03 system (copyright 2003, Gaussian, Inc.),
 the Gaussian(R) 98 system (copyright 1998, Gaussian, Inc.),
 the Gaussian(R) 94 system (copyright 1995, Gaussian, Inc.),
 the Gaussian 92(TM) system (copyright 1992, Gaussian, Inc.),
 the Gaussian 90(TM) system (copyright 1990, Gaussian, Inc.),
 the Gaussian 88(TM) system (copyright 1988, Gaussian, Inc.),
 the Gaussian 86(TM) system (copyright 1986, Carnegie Mellon
 University), and the Gaussian 82(TM) system (copyright 1983,
 Carnegie Mellon University). Gaussian is a federally registered
 trademark of Gaussian, Inc.
  
 This software contains proprietary and confidential information,
 including trade secrets, belonging to Gaussian, Inc.
  
 This software is provided under written license and may be
 used, copied, transmitted, or stored only in accord with that
 written license.
  
 The following legend is applicable only to US Government
 contracts under FAR:
  
                    RESTRICTED RIGHTS LEGEND
  
 Use, reproduction and disclosure by the US Government is
 subject to restrictions as set forth in subparagraphs (a)
 and (c) of the Commercial Computer Software - Restricted
 Rights clause in FAR 52.227-19.
  
 Gaussian, Inc.
 340 Quinnipiac St., Bldg. 40, Wallingford CT 06492
  
  
 ---------------------------------------------------------------
 Warning -- This program may not be used in any manner that
 competes with the business of Gaussian, Inc. or will provide
 assistance to any competitor of Gaussian, Inc.  The licensee
 of this program is prohibited from giving any competitor of
 Gaussian, Inc. access to this program.  By using this program,
 the user acknowledges that Gaussian, Inc. is engaged in the
 business of creating and licensing software in the field of
 computational chemistry and represents and warrants to the
 licensee that it is not a competitor of Gaussian, Inc. and that
 it will not use this program in any manner prohibited above.
 ---------------------------------------------------------------
  

 Cite this work as:
 Gaussian 16, Revision B.01,
 M. J. Frisch, G. W. Trucks, H. B. Schlegel, G. E. Scuseria, 
 M. A. Robb, J. R. Cheeseman, G. Scalmani, V. Barone, 
 G. A. Petersson, H. Nakatsuji, X. Li, M. Caricato, A. V. Marenich, 
 J. Bloino, B. G. Janesko, R. Gomperts, B. Mennucci, H. P. Hratchian, 
 J. V. Ortiz, A. F. Izmaylov, J. L. Sonnenberg, D. Williams-Young, 
 F. Ding, F. Lipparini, F. Egidi, J. Goings, B. Peng, A. Petrone, 
 T. Henderson, D. Ranasinghe, V. G. Zakrzewski, J. Gao, N. Rega, 
 G. Zheng, W. Liang, M. Hada, M. Ehara, K. Toyota, R. Fukuda, 
 J. Hasegawa, M. Ishida, T. Nakajima, Y. Honda, O. Kitao, H. Nakai, 
 T. Vreven, K. Throssell, J. A. Montgomery, Jr., J. E. Peralta, 
 F. Ogliaro, M. J. Bearpark, J. J. Heyd, E. N. Brothers, K. N. Kudin, 
 V. N. Staroverov, T. A. Keith, R. Kobayashi, J. Normand, 
 K. Raghavachari, A. P. Rendell, J. C. Burant, S. S. Iyengar, 
 J. Tomasi, M. Cossi, J. M. Millam, M. Klene, C. Adamo, R. Cammi, 
 J. W. Ochterski, R. L. Martin, K. Morokuma, O. Farkas, 
 J. B. Foresman, and D. J. Fox, Gaussian, Inc., Wallingford CT, 2016.
 
 ******************************************
 Gaussian 16:  EM64L-G16RevB.01 20-Dec-2017
                23-Aug-2020 
 ******************************************
 %mem=500MB
 %nproc=2
 Will use up to    2 processors via shared memory.
 --------------------------
 #p opt b3lyp def2svp force
 --------------------------
 1/38=1,172=1/1;
 2/12=2,17=6,18=5,40=1/2;
 3/5=43,7=101,11=2,25=1,30=1,74=-5/1,2,3;
 4//1;
 5/5=2,38=5/2;
 8/6=1,10=90,11=11/1;
 9/8=-1,42=1/14;
 6/7=2,8=2,9=2,10=2,28=1/1;
 99/5=1,9=1/99;
 Leave Link    1 at Sun Aug 23 11:07:34 2020, MaxMem=    65536000 cpu:               0.0 elap:               0.0
 (Enter /root/wbh/soft/g16/l101.exe)
 -------------------
 Title Card Required
 -------------------
 Symbolic Z-matrix:
 Charge =  0 Multiplicity = 1
 O                     0.        0.        0.12021 
 H                     0.        0.75704  -0.48083 
 H                     0.       -0.75704  -0.48083 
 
 ITRead=  0  0  0
 MicOpt= -1 -1 -1
 NAtoms=      3 NQM=        3 NQMF=       0 NMMI=      0 NMMIF=      0
                NMic=       0 NMicF=      0.
                    Isotopes and Nuclear Properties:
 (Nuclear quadrupole moments (NQMom) in fm**2, nuclear magnetic moments (NMagM)
  in nuclear magnetons)

  Atom         1           2           3
 IAtWgt=          16           1           1
 AtmWgt=  15.9949146   1.0078250   1.0078250
 NucSpn=           0           1           1
 AtZEff=   0.0000000   0.0000000   0.0000000
 NQMom=    0.0000000   0.0000000   0.0000000
 NMagM=    0.0000000   2.7928460   2.7928460
 AtZNuc=   8.0000000   1.0000000   1.0000000
 Leave Link  101 at Sun Aug 23 11:07:34 2020, MaxMem=    65536000 cpu:               0.1 elap:               0.0
 (Enter /root/wbh/soft/g16/l202.exe)
                          Input orientation:                          
 ---------------------------------------------------------------------
 Center     Atomic      Atomic             Coordinates (Angstroms)
 Number     Number       Type             X           Y           Z
 ---------------------------------------------------------------------
      1          8           0        0.000000    0.000000    0.120207
      2          1           0        0.000000    0.757039   -0.480828
      3          1           0        0.000000   -0.757039   -0.480828
 ---------------------------------------------------------------------
                    Distance matrix (angstroms):
                    1          2          3
     1  O    0.000000
     2  H    0.966618   0.000000
     3  H    0.966618   1.514078   0.000000
 Stoichiometry    H2O
 Framework group  C2V[C2(O),SGV(H2)]
 Deg. of freedom     2
 Full point group                 C2V     NOp   4
 Largest Abelian subgroup         C2V     NOp   4
 Largest concise Abelian subgroup C2      NOp   2
                         Standard orientation:                         
 ---------------------------------------------------------------------
 Center     Atomic      Atomic             Coordinates (Angstroms)
 Number     Number       Type             X           Y           Z
 ---------------------------------------------------------------------
      1          8           0        0.000000    0.000000    0.120207
      2          1           0        0.000000    0.757039   -0.480828
      3          1           0        0.000000   -0.757039   -0.480828
 ---------------------------------------------------------------------
 Rotational constants (GHZ):         781.5341115         437.4874045         280.4801437
 Leave Link  202 at Sun Aug 23 11:07:34 2020, MaxMem=    65536000 cpu:               0.0 elap:               0.0
 (Enter /root/wbh/soft/g16/l301.exe)
 Standard basis: def2SVP (5D, 7F)
 Ernie: Thresh=  0.10000D-02 Tol=  0.10000D-05 Strict=F.
 There are    12 symmetry adapted cartesian basis functions of A1  symmetry.
 There are     2 symmetry adapted cartesian basis functions of A2  symmetry.
 There are     4 symmetry adapted cartesian basis functions of B1  symmetry.
 There are     7 symmetry adapted cartesian basis functions of B2  symmetry.
 There are    11 symmetry adapted basis functions of A1  symmetry.
 There are     2 symmetry adapted basis functions of A2  symmetry.
 There are     4 symmetry adapted basis functions of B1  symmetry.
 There are     7 symmetry adapted basis functions of B2  symmetry.
    24 basis functions,    39 primitive gaussians,    25 cartesian basis functions
     5 alpha electrons        5 beta electrons
       nuclear repulsion energy         9.1087372214 Hartrees.
 IExCor=  402 DFT=T Ex+Corr=B3LYP ExCW=0 ScaHFX=  0.200000
 ScaDFX=  0.800000  0.720000  1.000000  0.810000 ScalE2=  1.000000  1.000000
 IRadAn=      5 IRanWt=     -1 IRanGd=            0 ICorTp=0 IEmpDi=  4
 NAtoms=    3 NActive=    3 NUniq=    2 SFac= 2.25D+00 NAtFMM=   60 NAOKFM=F Big=F
 Integral buffers will be    131072 words long.
 Raffenetti 2 integral format.
 Two-electron integral symmetry is turned on.
 Leave Link  301 at Sun Aug 23 11:07:34 2020, MaxMem=    65536000 cpu:               0.1 elap:               0.0
 (Enter /root/wbh/soft/g16/l302.exe)
 NPDir=0 NMtPBC=     1 NCelOv=     1 NCel=       1 NClECP=     1 NCelD=      1
         NCelK=      1 NCelE2=     1 NClLst=     1 CellRange=     0.0.
 One-electron integrals computed using PRISM.
 One-electron integral symmetry used in STVInt
   4 Symmetry operations used in ECPInt.
 ECPInt:  NShTT=      78 NPrTT=     272 LenC2=      79 LenP2D=     271.
 LDataN:  DoStor=T MaxTD1= 4 Len=   56
 NBasis=    24 RedAO= T EigKep=  3.79D-02  NBF=    11     2     4     7
 NBsUse=    24 1.00D-06 EigRej= -1.00D+00 NBFU=    11     2     4     7
 Precomputing XC quadrature grid using
 IXCGrd= 4 IRadAn=           5 IRanWt=          -1 IRanGd=           0 AccXCQ= 0.00D+00.
 Generated NRdTot=       0 NPtTot=           0 NUsed=           0 NTot=          32
 NSgBfM=    25    25    25    25    25 MxSgAt=     3 MxSgA2=     3.
 Leave Link  302 at Sun Aug 23 11:07:34 2020, MaxMem=    65536000 cpu:               0.1 elap:               0.1
 (Enter /root/wbh/soft/g16/l303.exe)
 DipDrv:  MaxL=1.
 Leave Link  303 at Sun Aug 23 11:07:34 2020, MaxMem=    65536000 cpu:               0.0 elap:               0.0
 (Enter /root/wbh/soft/g16/l401.exe)
 ExpMin= 1.22D-01 ExpMax= 2.27D+03 ExpMxC= 3.41D+02 IAcc=3 IRadAn=         5 AccDes= 0.00D+00
 Harris functional with IExCor=  402 and IRadAn=       5 diagonalized for initial guess.
 HarFok:  IExCor=  402 AccDes= 0.00D+00 IRadAn=         5 IDoV= 1 UseB2=F ITyADJ=14
 ICtDFT=  3500011 ScaDFX=  1.000000  1.000000  1.000000  1.000000
 FoFCou: FMM=F IPFlag=           0 FMFlag=      100000 FMFlg1=           0
         NFxFlg=           0 DoJE=T BraDBF=F KetDBF=T FulRan=T
         wScrn=  0.000000 ICntrl=       500 IOpCl=  0 I1Cent=   200000004 NGrid=           0
         NMat0=    1 NMatS0=      1 NMatT0=    0 NMatD0=    1 NMtDS0=    0 NMtDT0=    0
 Petite list used in FoFCou.
 Harris En= -76.3960197337397    
 JPrj=0 DoOrth=F DoCkMO=F.
 Initial guess orbital symmetries:
       Occupied  (A1) (A1) (B2) (A1) (B1)
       Virtual   (A1) (B2) (B2) (A1) (B1) (A1) (B2) (A1) (A2) (A1)
                 (B1) (B2) (B2) (A1) (B1) (A2) (A1) (A1) (B2)
 The electronic state of the initial guess is 1-A1.
 Leave Link  401 at Sun Aug 23 11:07:35 2020, MaxMem=    65536000 cpu:               0.2 elap:               0.1
 (Enter /root/wbh/soft/g16/l502.exe)
 Keep R1 ints in memory in symmetry-blocked form, NReq=1773612.
 FoFCou: FMM=F IPFlag=           0 FMFlag=           0 FMFlg1=           0
         NFxFlg=           0 DoJE=F BraDBF=F KetDBF=F FulRan=T
         wScrn=  0.000000 ICntrl=       600 IOpCl=  0 I1Cent=           0 NGrid=           0
         NMat0=    1 NMatS0=    300 NMatT0=    0 NMatD0=    1 NMtDS0=    0 NMtDT0=    0
 Petite list used in FoFCou.
 Closed shell SCF:
 Using DIIS extrapolation, IDIIS=  1040.
 NGot=    65536000 LenX=    65520273 LenY=    65519207
 Requested convergence on RMS density matrix=1.00D-08 within 128 cycles.
 Requested convergence on MAX density matrix=1.00D-06.
 Requested convergence on             energy=1.00D-06.
 No special actions if energy rises.
 Integral accuracy reduced to 1.0D-05 until final iterations.

 Cycle   1  Pass 0  IDiag  1:
 E= -76.2818494364800    
 DIIS: error= 5.24D-02 at cycle   1 NSaved=   1.
 NSaved= 1 IEnMin= 1 EnMin= -76.2818494364800     IErMin= 1 ErrMin= 5.24D-02
 ErrMax= 5.24D-02  0.00D+00 EMaxC= 1.00D-01 BMatC= 1.02D-01 BMatP= 1.02D-01
 IDIUse=3 WtCom= 4.76D-01 WtEn= 5.24D-01
 Coeff-Com:  0.100D+01
 Coeff-En:   0.100D+01
 Coeff:      0.100D+01
 Gap=     0.190 Goal=   None    Shift=    0.000
 GapD=    0.190 DampG=1.000 DampE=0.500 DampFc=0.5000 IDamp=-1.
 Damping current iteration by 5.00D-01
 RMSDP=2.09D-02 MaxDP=1.69D-01              OVMax= 2.03D-01

 Cycle   2  Pass 0  IDiag  1:
 E= -76.3079152066569     Delta-E=       -0.026065770177 Rises=F Damp=T
 DIIS: error= 1.41D-02 at cycle   2 NSaved=   2.
 NSaved= 2 IEnMin= 2 EnMin= -76.3079152066569     IErMin= 2 ErrMin= 1.41D-02
 ErrMax= 1.41D-02  0.00D+00 EMaxC= 1.00D-01 BMatC= 5.71D-03 BMatP= 1.02D-01
 IDIUse=3 WtCom= 8.59D-01 WtEn= 1.41D-01
 Coeff-Com:  0.181D+00 0.819D+00
 Coeff-En:   0.301D+00 0.699D+00
 Coeff:      0.198D+00 0.802D+00
 Gap=     0.325 Goal=   None    Shift=    0.000
 RMSDP=2.50D-03 MaxDP=3.08D-02 DE=-2.61D-02 OVMax= 1.12D-01

 Cycle   3  Pass 0  IDiag  1:
 E= -76.3582512559732     Delta-E=       -0.050336049316 Rises=F Damp=F
 DIIS: error= 1.76D-03 at cycle   3 NSaved=   3.
 NSaved= 3 IEnMin= 3 EnMin= -76.3582512559732     IErMin= 3 ErrMin= 1.76D-03
 ErrMax= 1.76D-03  0.00D+00 EMaxC= 1.00D-01 BMatC= 9.40D-05 BMatP= 5.71D-03
 IDIUse=3 WtCom= 9.82D-01 WtEn= 1.76D-02
 Coeff-Com:  0.308D-01 0.228D-01 0.946D+00
 Coeff-En:   0.000D+00 0.000D+00 0.100D+01
 Coeff:      0.303D-01 0.224D-01 0.947D+00
 Gap=     0.336 Goal=   None    Shift=    0.000
 RMSDP=2.70D-04 MaxDP=2.44D-03 DE=-5.03D-02 OVMax= 2.16D-03

 Cycle   4  Pass 0  IDiag  1:
 E= -76.3583140108745     Delta-E=       -0.000062754901 Rises=F Damp=F
 DIIS: error= 2.44D-04 at cycle   4 NSaved=   4.
 NSaved= 4 IEnMin= 4 EnMin= -76.3583140108745     IErMin= 4 ErrMin= 2.44D-04
 ErrMax= 2.44D-04  0.00D+00 EMaxC= 1.00D-01 BMatC= 2.04D-06 BMatP= 9.40D-05
 IDIUse=3 WtCom= 9.98D-01 WtEn= 2.44D-03
 Coeff-Com:  0.368D-02-0.155D-01 0.206D+00 0.806D+00
 Coeff-En:   0.000D+00 0.000D+00 0.000D+00 0.100D+01
 Coeff:      0.367D-02-0.155D-01 0.205D+00 0.807D+00
 Gap=     0.336 Goal=   None    Shift=    0.000
 RMSDP=2.71D-05 MaxDP=2.19D-04 DE=-6.28D-05 OVMax= 2.39D-04

 Cycle   5  Pass 0  IDiag  1:
 E= -76.3583152839306     Delta-E=       -0.000001273056 Rises=F Damp=F
 DIIS: error= 3.62D-05 at cycle   5 NSaved=   5.
 NSaved= 5 IEnMin= 5 EnMin= -76.3583152839306     IErMin= 5 ErrMin= 3.62D-05
 ErrMax= 3.62D-05  0.00D+00 EMaxC= 1.00D-01 BMatC= 3.46D-08 BMatP= 2.04D-06
 IDIUse=1 WtCom= 1.00D+00 WtEn= 0.00D+00
 Coeff-Com:  0.465D-03-0.495D-03 0.476D-03-0.103D-01 0.101D+01
 Coeff:      0.465D-03-0.495D-03 0.476D-03-0.103D-01 0.101D+01
 Gap=     0.336 Goal=   None    Shift=    0.000
 RMSDP=4.58D-06 MaxDP=4.71D-05 DE=-1.27D-06 OVMax= 4.27D-05

 Initial convergence to 1.0D-05 achieved.  Increase integral accuracy.
 Cycle   6  Pass 1  IDiag  1:
 E= -76.3583157198341     Delta-E=       -0.000000435904 Rises=F Damp=F
 DIIS: error= 4.36D-07 at cycle   1 NSaved=   1.
 NSaved= 1 IEnMin= 1 EnMin= -76.3583157198341     IErMin= 1 ErrMin= 4.36D-07
 ErrMax= 4.36D-07  0.00D+00 EMaxC= 1.00D-01 BMatC= 4.67D-12 BMatP= 4.67D-12
 IDIUse=1 WtCom= 1.00D+00 WtEn= 0.00D+00
 Coeff-Com:  0.100D+01
 Coeff:      0.100D+01
 Gap=     0.336 Goal=   None    Shift=    0.000
 RMSDP=4.58D-06 MaxDP=4.71D-05 DE=-4.36D-07 OVMax= 9.67D-07

 Cycle   7  Pass 1  IDiag  1:
 E= -76.3583157198401     Delta-E=       -0.000000000006 Rises=F Damp=F
 DIIS: error= 1.49D-07 at cycle   2 NSaved=   2.
 NSaved= 2 IEnMin= 2 EnMin= -76.3583157198401     IErMin= 2 ErrMin= 1.49D-07
 ErrMax= 1.49D-07  0.00D+00 EMaxC= 1.00D-01 BMatC= 5.59D-13 BMatP= 4.67D-12
 IDIUse=1 WtCom= 1.00D+00 WtEn= 0.00D+00
 Coeff-Com:  0.136D+00 0.864D+00
 Coeff:      0.136D+00 0.864D+00
 Gap=     0.336 Goal=   None    Shift=    0.000
 RMSDP=4.17D-08 MaxDP=3.55D-07 DE=-5.93D-12 OVMax= 4.27D-07

 Cycle   8  Pass 1  IDiag  1:
 E= -76.3583157198400     Delta-E=        0.000000000000 Rises=F Damp=F
 DIIS: error= 1.44D-07 at cycle   3 NSaved=   3.
 NSaved= 3 IEnMin= 2 EnMin= -76.3583157198401     IErMin= 3 ErrMin= 1.44D-07
 ErrMax= 1.44D-07  0.00D+00 EMaxC= 1.00D-01 BMatC= 6.10D-13 BMatP= 5.59D-13
 IDIUse=1 WtCom= 1.00D+00 WtEn= 0.00D+00
 Coeff-Com: -0.422D-01 0.518D+00 0.524D+00
 Coeff:     -0.422D-01 0.518D+00 0.524D+00
 Gap=     0.336 Goal=   None    Shift=    0.000
 RMSDP=1.98D-08 MaxDP=1.84D-07 DE= 5.68D-14 OVMax= 1.76D-07

 Cycle   9  Pass 1  IDiag  1:
 E= -76.3583157198405     Delta-E=        0.000000000000 Rises=F Damp=F
 DIIS: error= 9.31D-09 at cycle   4 NSaved=   4.
 NSaved= 4 IEnMin= 4 EnMin= -76.3583157198405     IErMin= 4 ErrMin= 9.31D-09
 ErrMax= 9.31D-09  0.00D+00 EMaxC= 1.00D-01 BMatC= 1.34D-15 BMatP= 5.59D-13
 IDIUse=1 WtCom= 1.00D+00 WtEn= 0.00D+00
 Coeff-Com: -0.108D-01 0.105D+00 0.126D+00 0.779D+00
 Coeff:     -0.108D-01 0.105D+00 0.126D+00 0.779D+00
 Gap=     0.336 Goal=   None    Shift=    0.000
 RMSDP=1.00D-09 MaxDP=7.84D-09 DE=-4.83D-13 OVMax= 1.24D-08

 SCF Done:  E(RB3LYP) =  -76.3583157198     A.U. after    9 cycles
            NFock=  9  Conv=0.10D-08     -V/T= 2.0069
 KE= 7.583637292117D+01 PE=-1.988012807144D+02 EE= 3.749785485199D+01
 Leave Link  502 at Sun Aug 23 11:07:35 2020, MaxMem=    65536000 cpu:               0.4 elap:               0.2
 (Enter /root/wbh/soft/g16/l801.exe)
 DoSCS=F DFT=T ScalE2(SS,OS)=  1.000000  1.000000
 Range of M.O.s used for correlation:     1    24
 NBasis=    24 NAE=     5 NBE=     5 NFC=     0 NFV=     0
 NROrb=     24 NOA=     5 NOB=     5 NVA=    19 NVB=    19
 Leave Link  801 at Sun Aug 23 11:07:35 2020, MaxMem=    65536000 cpu:               0.0 elap:               0.0
 (Enter /root/wbh/soft/g16/l914.exe)
 RHF ground state
 Doing stability rather than CIS.
 Keep R1 and R2 ints in memory in symmetry-blocked form, NReq=2137646.
 FoFCou: FMM=F IPFlag=           0 FMFlag=           0 FMFlg1=           0
         NFxFlg=           0 DoJE=F BraDBF=F KetDBF=F FulRan=T
         wScrn=  0.000000 ICntrl=       600 IOpCl=  0 I1Cent=           0 NGrid=           0
         NMat0=    1 NMatS0=    300 NMatT0=    0 NMatD0=    1 NMtDS0=    0 NMtDT0=    0
 Petite list used in FoFCou.
 MDV=    65536000 DFT=T DoStab=T Mixed=T DoRPA=F DoScal=F NonHer=F
 Making orbital integer symmetry assigments:
 Orbital symmetries:
       Occupied  (A1) (A1) (B2) (A1) (B1)
       Virtual   (A1) (B2) (B2) (A1) (A1) (B1) (B2) (A1) (A2) (A1)
                 (B1) (B2) (B2) (A1) (B1) (A2) (A1) (A1) (B2)
    24 initial guesses have been made.
 Convergence on wavefunction:    0.001000000000000
 Davidson Disk Diagonalization:  ConvIn= 1.00D-03 SkipCon=T Conv= 1.00D-03.
 Max sub-space:   380 roots to seek:    24 dimension of matrix:          190
 Iteration     1 Dimension    24 NMult     0 NNew     24
 CISAX will form    24 AO SS matrices at one time.
 NMat=    24 NSing=    12 JSym2X=-1.
 New state      1 was old state      2
 New state      2 was old state      1
 New state      3 was old state      4
 New state      4 was old state      6
 New state      6 was old state      8
 New state      7 was old state      3
 New state      8 was old state      7
 New state      9 was old state     10
 New state     10 was old state     12
 New state     11 was old state      9
 New state     12 was old state     11
 Excitation Energies [eV] at current iteration:
 Root      1 :     6.579854497957679
 Root      2 :     7.926992013995789
 Root      3 :     8.411189042915002
 Root      4 :     8.727416012039479
 Root      5 :     9.624958964055576
 Root      6 :    10.235742167939460
 Root      7 :    10.332212452895980
 Root      8 :    12.479043253442450
 Root      9 :    12.494302415159820
 Root     10 :    13.233999271903520
 Root     11 :    14.435028821366500
 Root     12 :    19.005639134279660
 Root     13 :    20.166649535349750
 Root     14 :    20.900944476192870
 Root     15 :    21.195258253460890
 Root     16 :    21.528949222809730
 Root     17 :    22.066994369351470
 Root     18 :    23.788691700302800
 Root     19 :    24.867045428432180
 Root     20 :    25.191707332037260
 Root     21 :    25.283960128673430
 Root     22 :    26.807375912323970
 Root     23 :    29.674792078226860
 Root     24 :    36.760708845349870
 Iteration     2 Dimension    48 NMult    24 NNew     24
 CISAX will form    24 AO SS matrices at one time.
 NMat=    24 NSing=    12 JSym2X=-1.
 Root      1 not converged, maximum delta is    0.022179212741339
 Root      2 not converged, maximum delta is    0.013324058618570
 Root      3 not converged, maximum delta is    0.030682703045366
 Root      4 not converged, maximum delta is    0.035193340357132
 Root      5 not converged, maximum delta is    0.015112520508185
 Root      6 not converged, maximum delta is    0.075029999314573
 Root      7 not converged, maximum delta is    0.033124367635518
 New state      8 was old state      9
 Root      8 not converged, maximum delta is    0.075658852052046
 New state      9 was old state      8
 Root      9 not converged, maximum delta is    0.031117696155084
 Root     10 not converged, maximum delta is    0.061125302819964
 Root     11 not converged, maximum delta is    0.039366497227828
 Root     12 not converged, maximum delta is    0.101016338528625
 Excitation Energies [eV] at current iteration:
 Root      1 :     6.467712527258114   Change is   -0.112141970699565
 Root      2 :     7.831570856472214   Change is   -0.095421157523575
 Root      3 :     8.276113858246372   Change is   -0.135075184668629
 Root      4 :     8.581812758377097   Change is   -0.145603253662381
 Root      5 :     9.600407850937319   Change is   -0.024551113118258
 Root      6 :     9.932241258160641   Change is   -0.303500909778822
 Root      7 :    10.208130974441230   Change is   -0.124081478454746
 Root      8 :    12.169861376244840   Change is   -0.324441038914980
 Root      9 :    12.262939903718470   Change is   -0.216103349723984
 Root     10 :    12.913766621391920   Change is   -0.320232650511604
 Root     11 :    14.290850671800380   Change is   -0.144178149566125
 Root     12 :    17.614913452138640   Change is   -1.390725682141025
 Root     13 :    20.064095259126400   Change is   -0.102554276223349
 Root     14 :    20.695103339973440   Change is   -0.500154913487447
 Root     15 :    20.875923772600810   Change is   -0.025020703592066
 Root     16 :    21.342317834788090   Change is   -0.186631388021635
 Root     17 :    21.483938836570750   Change is   -0.583055532780718
 Root     18 :    23.268834418822790   Change is   -0.519857281480014
 Root     19 :    24.543535804951150   Change is   -0.323509623481035
 Root     20 :    24.575006026398070   Change is   -2.232369885925893
 Root     21 :    24.877590565779200   Change is   -0.314116766258066
 Root     22 :    25.130462313466080   Change is   -0.153497815207349
 Root     23 :    27.469046042533360   Change is   -2.205746035693501
 Root     24 :    30.210546953220010   Change is   -6.550161892129855
 Iteration     3 Dimension    54 NMult    48 NNew      6
 CISAX will form     6 AO SS matrices at one time.
 NMat=     6 NSing=     3 JSym2X=-1.
 Root      1 has converged.
 Root      2 not converged, maximum delta is    0.002585472875038
 Root      3 has converged.
 Root      4 not converged, maximum delta is    0.001030255298381
 Root      5 has converged.
 New state      6 was old state      7
 Root      6 not converged, maximum delta is    0.003041853525067
 Excitation Energies [eV] at current iteration:
 Root      1 :     6.467558557865996   Change is   -0.000153969392118
 Root      2 :     7.830736263377535   Change is   -0.000834593094679
 Root      3 :     8.275705341202285   Change is   -0.000408517044089
 Root      4 :     8.581512486828801   Change is   -0.000300271548296
 Root      5 :     9.600358403566233   Change is   -0.000049447371087
 Root      6 :    10.206384048337470   Change is   -0.001746926103767
 Iteration     4 Dimension    57 NMult    54 NNew      3
 CISAX will form     3 AO SS matrices at one time.
 NMat=     3 NSing=     2 JSym2X=-1.
 Root      1 has converged.
 Root      2 has converged.
 Root      3 has converged.
 Root      4 has converged.
 Root      5 has converged.
 Root      6 has converged.
 Excitation Energies [eV] at current iteration:
 Root      1 :     6.467558557865971   Change is   -0.000000000000026
 Root      2 :     7.830735210154065   Change is   -0.000001053223470
 Root      3 :     8.275705341202261   Change is   -0.000000000000023
 Root      4 :     8.581512207434113   Change is   -0.000000279394689
 Root      5 :     9.600358403566231   Change is   -0.000000000000002
 Root      6 :    10.206382771894380   Change is   -0.000001276443086
 Convergence achieved on expansion vectors.
 ***********************************************************************
 Stability analysis using <AA,BB:AA,BB> singles matrix:
 ***********************************************************************
 1PDM for each excited state written to RWF  633
 Ground to excited state transition densities written to RWF  633

 Eigenvectors of the stability matrix:
 
 Eigenvector   1:      Triplet-B1   Eigenvalue= 0.2376784  <S**2>=2.000
       5 ->  6         0.70364
 
 Eigenvector   2:      Singlet-B1   Eigenvalue= 0.2877742  <S**2>=0.000
       5 ->  6         0.70651
 
 Eigenvector   3:      Triplet-A1   Eigenvalue= 0.3041266  <S**2>=2.000
       4 ->  6         0.69165
 
 Eigenvector   4:      Triplet-A2   Eigenvalue= 0.3153648  <S**2>=2.000
       5 ->  7         0.70221
 
 Eigenvector   5:      Singlet-A2   Eigenvalue= 0.3528067  <S**2>=0.000
       5 ->  7         0.70655
 
 Eigenvector   6:      Singlet-A1   Eigenvalue= 0.3750777  <S**2>=0.000
       3 ->  7        -0.11804
       4 ->  6         0.69477
 The wavefunction is stable under the perturbations considered.
 Leave Link  914 at Sun Aug 23 11:07:36 2020, MaxMem=    65536000 cpu:               2.5 elap:               1.2
 (Enter /root/wbh/soft/g16/l601.exe)
 Copying SCF densities to generalized density rwf, IOpCl= 0 IROHF=0.

 **********************************************************************

            Population analysis using the SCF Density.

 **********************************************************************

 Orbital symmetries:
       Occupied  (A1) (A1) (B2) (A1) (B1)
       Virtual   (A1) (B2) (B2) (A1) (A1) (B1) (B2) (A1) (A2) (A1)
                 (B1) (B2) (B2) (A1) (B1) (A2) (A1) (A1) (B2)
 The electronic state is 1-A1.
 Alpha  occ. eigenvalues --  -19.11964  -0.97982  -0.51166  -0.36789  -0.29167
 Alpha virt. eigenvalues --    0.04482   0.12391   0.55518   0.62053   0.91734
 Alpha virt. eigenvalues --    0.92035   1.00685   1.09512   1.34765   1.39553
 Alpha virt. eigenvalues --    1.54226   1.78666   2.19898   2.24612   2.96049
 Alpha virt. eigenvalues --    2.99679   3.18480   3.48368   3.82044
          Condensed to atoms (all electrons):
               1          2          3
     1  O    7.645882   0.324292   0.324292
     2  H    0.324292   0.561469  -0.032994
     3  H    0.324292  -0.032994   0.561469
 Mulliken charges:
               1
     1  O   -0.294466
     2  H    0.147233
     3  H    0.147233
 Sum of Mulliken charges =   0.00000
 Mulliken charges with hydrogens summed into heavy atoms:
               1
     1  O    0.000000
 Electronic spatial extent (au):  <R**2>=             19.0137
 Charge=              0.0000 electrons
 Dipole moment (field-independent basis, Debye):
    X=              0.0000    Y=              0.0000    Z=             -2.0043  Tot=              2.0043
 Quadrupole moment (field-independent basis, Debye-Ang):
   XX=             -7.0030   YY=             -4.3520   ZZ=             -5.9374
   XY=              0.0000   XZ=              0.0000   YZ=              0.0000
 Traceless Quadrupole moment (field-independent basis, Debye-Ang):
   XX=             -1.2389   YY=              1.4121   ZZ=             -0.1732
   XY=              0.0000   XZ=              0.0000   YZ=              0.0000
 Octapole moment (field-independent basis, Debye-Ang**2):
  XXX=              0.0000  YYY=              0.0000  ZZZ=             -1.0654  XYY=              0.0000
  XXY=              0.0000  XXZ=             -0.2768  XZZ=              0.0000  YZZ=              0.0000
  YYZ=             -1.1066  XYZ=              0.0000
 Hexadecapole moment (field-independent basis, Debye-Ang**3):
 XXXX=             -4.8416 YYYY=             -6.1993 ZZZZ=             -6.1581 XXXY=              0.0000
 XXXZ=              0.0000 YYYX=              0.0000 YYYZ=              0.0000 ZZZX=              0.0000
 ZZZY=              0.0000 XXYY=             -2.0917 XXZZ=             -1.8880 YYZZ=             -1.7272
 XXYZ=              0.0000 YYXZ=              0.0000 ZZXY=              0.0000
 N-N= 9.108737221434D+00 E-N=-1.988012806072D+02  KE= 7.583637292117D+01
 Symmetry A1   KE= 6.766504911386D+01
 Symmetry A2   KE=-1.957549826313D-36
 Symmetry B1   KE= 4.631253204195D+00
 Symmetry B2   KE= 3.540070603114D+00
 No NMR shielding tensors so no spin-rotation constants.
 Leave Link  601 at Sun Aug 23 11:07:36 2020, MaxMem=    65536000 cpu:               0.1 elap:               0.1
 (Enter /root/wbh/soft/g16/l9999.exe)
 1\1\GINC-LOCALHOST\Stability\RB3LYP\def2SVP\H2O1\ROOT\23-Aug-2020\0\\#
 p opt b3lyp def2svp force\\Title Card Required\\0,1\O,0,0.,0.,0.120207
 \H,0,0.,0.757039,-0.480828\H,0,0.,-0.757039,-0.480828\\Version=EM64L-G
 16RevB.01\State=1-A1\HF=-76.3583157\RMSD=1.003e-09\Dipole=0.,0.,-0.788
 569\Quadrupole=-0.9210676,1.0498659,-0.1287984,0.,0.,0.\PG=C02V [C2(O1
 ),SGV(H2)]\\@


 "WHERE SHALL I START, PLEASE YOUR MAJESTY?" HE ASKED.
 "BEGIN AT THE BEGINNING," THE KING SAID GRAVELY,
 "AND GO ON TILL YOU COME TO THE END: THEN STOP." 

                                      -- LEWIS CARROLL
 Job cpu time:       0 days  0 hours  0 minutes  3.8 seconds.
 Elapsed time:       0 days  0 hours  0 minutes  1.9 seconds.
 File lengths (MBytes):  RWF=      6 Int=      0 D2E=      0 Chk=      1 Scr=      1
 Normal termination of Gaussian 16 at Sun Aug 23 11:07:36 2020.
